                         Program Version 3.0.3 - RELEASE   -
|  1> ! RI-MP2 RIJK def2-TZVP def2-TZVP/C def2-TZVP/JK TIGHTSCF
|  2> % maxcore 2000
|  3> % mp2 density relaxed end
|  4> *xyz 0 1
|  5>  C       -0.1560782080     1.2864654092     0.2088041073
|  6>  N       -0.1642248202    -0.1287701971    -0.1134019469
|  7>  C       -1.3192301388    -0.8551014562    -0.0824092377
|  8>  O       -2.3885042809    -0.4539730932     0.3191424427
|  9>  N       -1.1542032619    -2.1543011887    -0.6378001840
| 10>  C       -0.2575927518    -3.1564125587    -0.0959414923
| 11>  C       -1.7554367314    -3.3216715780    -0.0256533046
| 12>  C       -2.3904177886    -3.2621017749     1.2728705215
| 13>  N       -2.8958611110    -3.2956007558     2.3115288445
| 14>  H        0.7266797745     1.5353376357     0.8048511359
| 15>  H       -0.1652203188     1.9145340472    -0.6904259744
| 16>  H       -1.0543085226     1.4978633228     0.7892202312
| 17>  H        0.6128962964    -0.5090929710    -0.6286111911
| 18>  H        0.3083425093    -3.7401246654    -0.8167815974
| 19>  H        0.2497034132    -2.9393810279     0.8408666258
| 20>  H       -2.2482332795    -3.9966065580    -0.7200639505
| 21> *
| 22>
| 23>                          ****END OF INPUT****

CARTESIAN COORDINATES (ANGSTROEM)
---------------------------------
  C     -0.156078    1.286465    0.208804
  N     -0.164225   -0.128770   -0.113402
  C     -1.319230   -0.855101   -0.082409
  O     -2.388504   -0.453973    0.319142
  N     -1.154203   -2.154301   -0.637800
  C     -0.257593   -3.156413   -0.095941
  C     -1.755437   -3.321672   -0.025653
  C     -2.390418   -3.262102    1.272871
  N     -2.895861   -3.295601    2.311529
  H      0.726680    1.535338    0.804851
  H     -0.165220    1.914534   -0.690426
  H     -1.054309    1.497863    0.789220
  H      0.612896   -0.509093   -0.628611
  H      0.308343   -3.740125   -0.816782
  H      0.249703   -2.939381    0.840867
  H     -2.248233   -3.996607   -0.720064

 Total Charge           Charge          ....    0
 Multiplicity           Mult            ....    1
 Number of Electrons    NEL             ....   66
 Basis Dimension        Dim             ....  321

ORBITAL ENERGIES
----------------

  NO   OCC          E(Eh)            E(eV)
   0   2.0000     -20.529366      -558.6325
   1   2.0000     -15.617517      -424.9742
   2   2.0000     -15.597793      -424.4375
   3   2.0000     -15.576254      -423.8514
   4   2.0000     -11.391428      -309.9765
   5   2.0000     -11.334026      -308.4145
   6   2.0000     -11.313781      -307.8636
   7   2.0000     -11.278858      -306.9133
   8   2.0000     -11.268409      -306.6290
   9   2.0000      -1.415842       -38.5270
  10   2.0000      -1.324326       -36.0368
  11   2.0000      -1.245183       -33.8831
  12   2.0000      -1.218119       -33.1467
  13   2.0000      -1.024786       -27.8858
  14   2.0000      -0.942117       -25.6363
  15   2.0000      -0.927486       -25.2382
  16   2.0000      -0.815846       -22.2003
  17   2.0000      -0.782921       -21.3044
  18   2.0000      -0.730941       -19.8899
  19   2.0000      -0.668378       -18.1875
  20   2.0000      -0.640650       -17.4330
  21   2.0000      -0.636155       -17.3106
  22   2.0000      -0.615907       -16.7597
  23   2.0000      -0.571531       -15.5521
  24   2.0000      -0.565189       -15.3796
  25   2.0000      -0.560423       -15.2499
  26   2.0000      -0.554767       -15.0960
  27   2.0000      -0.547667       -14.9028
  28   2.0000      -0.485418       -13.2089
  29   2.0000      -0.466896       -12.7049
  30   2.0000      -0.445166       -12.1136
  31   2.0000      -0.422489       -11.4965
  32   2.0000      -0.406276       -11.0553
  33   0.0000       0.115285         3.1371
  34   0.0000       0.137220         3.7339
  35   0.0000       0.149636         4.0718
  36   0.0000       0.157147         4.2762
  37   0.0000       0.167681         4.5628

MULLIKEN ATOMIC CHARGES
-----------------------
   0 C :   -0.288259
   1 N :   -0.342452
   2 C :    0.350797
   3 O :   -0.349659
   4 N :   -0.201137
   5 C :   -0.184239
   6 C :    0.055367
   7 C :   -0.175109
   8 N :   -0.045414
   9 H :    0.138362
  10 H :    0.137558
  11 H :    0.179647
  12 H :    0.245898
  13 H :    0.150076
  14 H :    0.163109
  15 H :    0.165456
Sum of atomic charges:    0.0000000

LOEWDIN ATOMIC CHARGES
----------------------
   0 C :   -0.308458
   1 N :    0.075757
   2 C :   -0.529304
   3 O :    0.106637
   4 N :    0.178742
   5 C :   -0.200889
   6 C :   -0.223486
   7 C :   -0.171399
   8 N :    0.081446
   9 H :    0.117141
  10 H :    0.115099
  11 H :    0.136053
  12 H :    0.186667
  13 H :    0.131225
  14 H :    0.138278
  15 H :    0.166494

  Mayer bond orders larger than 0.1
B(  0-C ,  1-N ) :   0.8642 B(  0-C ,  9-H ) :   0.9328 B(  0-C , 10-H ) :   0.9373
B(  0-C , 11-H ) :   0.9264 B(  1-N ,  2-C ) :   1.1566 B(  1-N , 12-H ) :   0.8687
B(  2-C ,  3-O ) :   1.9435 B(  2-C ,  4-N ) :   0.9547 B(  4-N ,  5-C ) :   0.8591
B(  4-N ,  6-C ) :   0.9181 B(  5-C ,  6-C ) :   0.8880 B(  5-C , 13-H ) :   0.9228
B(  5-C , 14-H ) :   0.9122 B(  6-C ,  7-C ) :   0.9773 B(  6-C , 15-H ) :   0.8988
B(  7-C ,  8-N ) :   2.8247

MP2 TOTAL ENERGY:     -433.354609005 Eh
FINAL SINGLE POINT ENERGY      -433.354609005382

DIPOLE MOMENT
-------------
                                X             Y             Z
Electronic contribution:     -5.29100      -4.88705       1.34170
Nuclear contribution   :      7.40327       4.84186      -2.59024
                        -----------------------------------------
Total Dipole Moment    :      2.11227      -0.04519      -1.24854
                        -----------------------------------------
Magnitude (a.u.)       :      2.45409
Magnitude (Debye)      :      6.23781

                             ****ORCA TERMINATED NORMALLY****
TOTAL RUN TIME: 0 days 0 hours 15 minutes 47 seconds 102 msec
