                         Program Version 3.0.3 - RELEASE   -
|  1> ! RI-MP2 RIJK def2-TZVP def2-TZVP/C def2-TZVP/JK TIGHTSCF
|  2> % maxcore 2000
|  3> % mp2 density relaxed end
|  4> *xyz 0 1
|  5>  O        0.1474798269     1.3923371023    -0.2352941039
|  6>  C        0.0317815188     0.0170143854     0.0005497433
|  7>  C        0.2433922501    -0.5832811196     1.4412015541
|  8>  C       -1.1053170974    -1.2951056366     1.3067291770
|  9>  C       -2.2178595865    -0.2582170019     1.1445973371
| 10>  C       -2.2043278965     1.0310583969     1.7772623030
| 11>  C       -2.1860557565     2.1163135963     2.3016473939
| 12>  C       -1.3476510167    -0.6570079784    -0.0442687990
| 13>  O       -1.9050609956    -1.2489136419    -1.1580840497
| 14>  H       -0.4203940814     1.8462895951     0.4005530340
| 15>  H        0.6946773475    -0.4762961206    -0.7157236844
| 16>  H        1.0995724275    -1.2575646965     1.4995375625
| 17>  H        0.3061769844     0.1530238331     2.2464595758
| 18>  H       -1.3434961395    -2.2983444114     1.6359370380
| 19>  H       -3.2003357138    -0.7169777924     1.0674056923
| 20>  H       -2.1867995267     3.0655682426     2.7781759598
| 21>  H       -2.2589474647    -0.5537202826    -1.7250852640
| 22> *
| 23>
| 24>                          ****END OF INPUT****

CARTESIAN COORDINATES (ANGSTROEM)
---------------------------------
  O      0.147480    1.392337   -0.235294
  C      0.031782    0.017014    0.000550
  C      0.243392   -0.583281    1.441202
  C     -1.105317   -1.295106    1.306729
  C     -2.217860   -0.258217    1.144597
  C     -2.204328    1.031058    1.777262
  C     -2.186056    2.116314    2.301647
  C     -1.347651   -0.657008   -0.044269
  O     -1.905061   -1.248914   -1.158084
  H     -0.420394    1.846290    0.400553
  H      0.694677   -0.476296   -0.715724
  H      1.099572   -1.257565    1.499538
  H      0.306177    0.153024    2.246460
  H     -1.343496   -2.298344    1.635937
  H     -3.200336   -0.716978    1.067406
  H     -2.186800    3.065568    2.778176
  H     -2.258947   -0.553720   -1.725085

 Total Charge           Charge          ....    0
 Multiplicity           Mult            ....    1
 Number of Electrons    NEL             ....   66
 Basis Dimension        Dim             ....  327

ORBITAL ENERGIES
----------------

  NO   OCC          E(Eh)            E(eV)
   0   2.0000     -20.580114      -560.0134
   1   2.0000     -20.554695      -559.3217
   2   2.0000     -11.304157      -307.6018
   3   2.0000     -11.290208      -307.2222
   4   2.0000     -11.267850      -306.6138
   5   2.0000     -11.253460      -306.2222
   6   2.0000     -11.250287      -306.1359
   7   2.0000     -11.235970      -305.7463
   8   2.0000     -11.234967      -305.7190
   9   2.0000      -1.395114       -37.9630
  10   2.0000      -1.364573       -37.1319
  11   2.0000      -1.197809       -32.5940
  12   2.0000      -1.053422       -28.6651
  13   2.0000      -0.989023       -26.9127
  14   2.0000      -0.894562       -24.3423
  15   2.0000      -0.860248       -23.4085
  16   2.0000      -0.770538       -20.9674
  17   2.0000      -0.746179       -20.3046
  18   2.0000      -0.730592       -19.8804
  19   2.0000      -0.681061       -18.5326
  20   2.0000      -0.650819       -17.7097
  21   2.0000      -0.643881       -17.5209
  22   2.0000      -0.618599       -16.8329
  23   2.0000      -0.575535       -15.6611
  24   2.0000      -0.568412       -15.4673
  25   2.0000      -0.554208       -15.0808
  26   2.0000      -0.527014       -14.3408
  27   2.0000      -0.497014       -13.5244
  28   2.0000      -0.461041       -12.5456
  29   2.0000      -0.427294       -11.6273
  30   2.0000      -0.420691       -11.4476
  31   2.0000      -0.392728       -10.6867
  32   2.0000      -0.363199        -9.8831
  33   0.0000       0.140126         3.8130
  34   0.0000       0.148289         4.0352
  35   0.0000       0.152782         4.1574
  36   0.0000       0.161391         4.3917
  37   0.0000       0.166519         4.5312

MULLIKEN ATOMIC CHARGES
-----------------------
   0 O :   -0.456315
   1 C :    0.018759
   2 C :   -0.230166
   3 C :   -0.098314
   4 C :   -0.377696
   5 C :    0.013565
   6 C :   -0.150963
   7 C :    0.213856
   8 O :   -0.452464
   9 H :    0.330846
  10 H :    0.111182
  11 H :    0.128646
  12 H :    0.131512
  13 H :    0.144813
  14 H :    0.142960
  15 H :    0.194349
  16 H :    0.335430
Sum of atomic charges:    0.0000000

LOEWDIN ATOMIC CHARGES
----------------------
   0 O :   -0.006658
   1 C :   -0.290077
   2 C :   -0.190910
   3 C :   -0.122881
   4 C :   -0.166273
   5 C :   -0.104375
   6 C :   -0.105233
   7 C :   -0.297570
   8 O :    0.039550
   9 H :    0.180771
  10 H :    0.150036
  11 H :    0.136339
  12 H :    0.136426
  13 H :    0.142413
  14 H :    0.176876
  15 H :    0.129028
  16 H :    0.192538

  Mayer bond orders larger than 0.1
B(  0-O ,  1-C ) :   0.9849 B(  0-O ,  9-H ) :   0.8248 B(  1-C ,  2-C ) :   0.9358
B(  1-C ,  7-C ) :   0.9105 B(  1-C , 10-H ) :   0.9278 B(  2-C ,  3-C ) :   0.9682
B(  2-C , 11-H ) :   0.9262 B(  2-C , 12-H ) :   0.9048 B(  3-C ,  4-C ) :   0.8470
B(  3-C ,  7-C ) :   0.8082 B(  3-C , 13-H ) :   0.8954 B(  4-C ,  5-C ) :   1.0843
B(  4-C ,  6-C ) :  -0.1182 B(  4-C ,  7-C ) :   0.9025 B(  4-C , 14-H ) :   0.9540
B(  5-C ,  6-C ) :   2.5273 B(  6-C , 15-H ) :   0.9080 B(  7-C ,  8-O ) :   1.0109
B(  8-O , 16-H ) :   0.8312

MP2 TOTAL ENERGY:     -421.049755657 Eh
FINAL SINGLE POINT ENERGY      -421.049755656886

DIPOLE MOMENT
-------------
                                X             Y             Z
Electronic contribution:     -2.02084       0.65280      -1.50085
Nuclear contribution   :      1.67579      -0.61621       1.85603
                        -----------------------------------------
Total Dipole Moment    :     -0.34504       0.03658       0.35519
                        -----------------------------------------
Magnitude (a.u.)       :      0.49654
Magnitude (Debye)      :      1.26211

                             ****ORCA TERMINATED NORMALLY****
TOTAL RUN TIME: 0 days 0 hours 17 minutes 33 seconds 805 msec
