                         Program Version 3.0.3 - RELEASE   -
|  1> ! RI-MP2 RIJK def2-TZVP def2-TZVP/C def2-TZVP/JK TIGHTSCF
|  2> % maxcore 2000
|  3> % mp2 density relaxed end
|  4> *xyz 0 1
|  5>  O       -0.0266707907     0.7045632691    -1.3770495064
|  6>  C       -0.0213242399     1.3616510719    -0.3536711312
|  7>  C       -1.3083362967     1.8043957771     0.2627928778
|  8>  C       -1.6336603268     1.6188561508     1.7424111683
|  9>  C       -1.3207602431     2.9861336423     1.2230566738
| 10>  C       -0.0272064532     3.7307485720     1.5240997587
| 11>  C        1.2771030779     3.0211818654     1.1869784290
| 12>  C        1.6410658656     1.6630362181     1.6969344981
| 13>  C        1.2698977749     1.8391774744     0.2269894670
| 14>  H       -2.1392277764     1.6811193642    -0.4225437642
| 15>  H       -2.6701368526     1.3908824156     1.9662808728
| 16>  H       -0.9334726967     1.1003257758     2.3818969251
| 17>  H       -2.1774136099     3.6469501548     1.1264063701
| 18>  H       -0.0478294084     4.6602185134     0.9420668460
| 19>  H       -0.0166706962     4.0356778825     2.5789967005
| 20>  H        2.1126078023     3.7048264394     1.0668262171
| 21>  H        2.6891311301     1.4631860162     1.8918512165
| 22>  H        0.9731476161     1.1260507983     2.3554255576
| 23>  H        2.0844631639     1.7380980786    -0.4811985766
| 24> *
| 25>
| 26>                          ****END OF INPUT****

CARTESIAN COORDINATES (ANGSTROEM)
---------------------------------
  O     -0.026671    0.704563   -1.377050
  C     -0.021324    1.361651   -0.353671
  C     -1.308336    1.804396    0.262793
  C     -1.633660    1.618856    1.742411
  C     -1.320760    2.986134    1.223057
  C     -0.027206    3.730749    1.524100
  C      1.277103    3.021182    1.186978
  C      1.641066    1.663036    1.696934
  C      1.269898    1.839177    0.226989
  H     -2.139228    1.681119   -0.422544
  H     -2.670137    1.390882    1.966281
  H     -0.933473    1.100326    2.381897
  H     -2.177414    3.646950    1.126406
  H     -0.047829    4.660219    0.942067
  H     -0.016671    4.035678    2.578997
  H      2.112608    3.704826    1.066826
  H      2.689131    1.463186    1.891851
  H      0.973148    1.126051    2.355426
  H      2.084463    1.738098   -0.481199

 Total Charge           Charge          ....    0
 Multiplicity           Mult            ....    1
 Number of Electrons    NEL             ....   66
 Basis Dimension        Dim             ....  339

ORBITAL ENERGIES
----------------

  NO   OCC          E(Eh)            E(eV)
   0   2.0000     -20.528177      -558.6001
   1   2.0000     -11.324215      -308.1476
   2   2.0000     -11.252191      -306.1877
   3   2.0000     -11.252182      -306.1874
   4   2.0000     -11.244591      -305.9809
   5   2.0000     -11.244589      -305.9808
   6   2.0000     -11.243836      -305.9603
   7   2.0000     -11.242084      -305.9127
   8   2.0000     -11.242063      -305.9121
   9   2.0000      -1.372725       -37.3537
  10   2.0000      -1.187656       -32.3177
  11   2.0000      -1.141020       -31.0487
  12   2.0000      -1.002037       -27.2668
  13   2.0000      -0.920245       -25.0412
  14   2.0000      -0.853920       -23.2364
  15   2.0000      -0.831061       -22.6143
  16   2.0000      -0.796629       -21.6774
  17   2.0000      -0.712220       -19.3805
  18   2.0000      -0.675918       -18.3927
  19   2.0000      -0.672298       -18.2942
  20   2.0000      -0.644110       -17.5271
  21   2.0000      -0.618934       -16.8420
  22   2.0000      -0.584000       -15.8914
  23   2.0000      -0.581923       -15.8349
  24   2.0000      -0.563878       -15.3439
  25   2.0000      -0.537972       -14.6390
  26   2.0000      -0.524917       -14.2837
  27   2.0000      -0.489428       -13.3180
  28   2.0000      -0.461563       -12.5598
  29   2.0000      -0.429195       -11.6790
  30   2.0000      -0.417425       -11.3587
  31   2.0000      -0.404866       -11.0170
  32   2.0000      -0.395934       -10.7739
  33   0.0000       0.128309         3.4915
  34   0.0000       0.138270         3.7625
  35   0.0000       0.154700         4.2096
  36   0.0000       0.165050         4.4912
  37   0.0000       0.176091         4.7917

MULLIKEN ATOMIC CHARGES
-----------------------
   0 O :   -0.295375
   1 C :    0.121505
   2 C :   -0.088708
   3 C :   -0.265129
   4 C :   -0.126034
   5 C :   -0.170521
   6 C :   -0.126033
   7 C :   -0.265129
   8 C :   -0.088709
   9 H :    0.135729
  10 H :    0.139317
  11 H :    0.126385
  12 H :    0.128318
  13 H :    0.124830
  14 H :    0.119807
  15 H :    0.128318
  16 H :    0.139316
  17 H :    0.126385
  18 H :    0.135729
Sum of atomic charges:    0.0000000

LOEWDIN ATOMIC CHARGES
----------------------
   0 O :    0.138496
   1 C :   -0.307095
   2 C :   -0.154615
   3 C :   -0.190633
   4 C :   -0.192140
   5 C :   -0.217507
   6 C :   -0.192140
   7 C :   -0.190634
   8 C :   -0.154616
   9 H :    0.158409
  10 H :    0.137975
  11 H :    0.131206
  12 H :    0.152915
  13 H :    0.151821
  14 H :    0.148055
  15 H :    0.152914
  16 H :    0.137975
  17 H :    0.131206
  18 H :    0.158409

  Mayer bond orders larger than 0.1
B(  0-O ,  1-C ) :   1.9549 B(  1-C ,  2-C ) :   0.9731 B(  1-C ,  8-C ) :   0.9731
B(  2-C ,  3-C ) :   0.8320 B(  2-C ,  4-C ) :   0.7992 B(  2-C ,  9-H ) :   0.9244
B(  3-C ,  4-C ) :   0.9088 B(  3-C , 10-H ) :   0.9299 B(  3-C , 11-H ) :   0.9211
B(  4-C ,  5-C ) :   0.9430 B(  4-C , 12-H ) :   0.9250 B(  5-C ,  6-C ) :   0.9430
B(  5-C , 13-H ) :   0.9210 B(  5-C , 14-H ) :   0.9198 B(  6-C ,  7-C ) :   0.9088
B(  6-C ,  8-C ) :   0.7992 B(  6-C , 15-H ) :   0.9250 B(  7-C ,  8-C ) :   0.8320
B(  7-C , 16-H ) :   0.9299 B(  7-C , 17-H ) :   0.9211 B(  8-C , 18-H ) :   0.9244

MP2 TOTAL ENERGY:     -385.214365851 Eh
FINAL SINGLE POINT ENERGY      -385.214365851370

DIPOLE MOMENT
-------------
                                X             Y             Z
Electronic contribution:     -0.03363      -2.76498      -5.10733
Nuclear contribution   :      0.03834       3.61768       6.27440
                        -----------------------------------------
Total Dipole Moment    :      0.00470       0.85271       1.16707
                        -----------------------------------------
Magnitude (a.u.)       :      1.44540
Magnitude (Debye)      :      3.67392

                             ****ORCA TERMINATED NORMALLY****
TOTAL RUN TIME: 0 days 0 hours 19 minutes 9 seconds 244 msec
