                         Program Version 3.0.3 - RELEASE   -
|  1> ! RI-MP2 RIJK def2-TZVP def2-TZVP/C def2-TZVP/JK TIGHTSCF
|  2> % maxcore 2000
|  3> % mp2 density relaxed end
|  4> *xyz 0 1
|  5>  C        0.1202046094     1.2989776906     0.0638358879
|  6>  O       -0.0572018567    -0.1010555839    -0.0623055385
|  7>  C        0.6115149424    -0.6516889166    -1.1497799659
|  8>  O        2.0507771252    -0.5845729410    -1.0009320266
|  9>  C        2.4095346689    -1.9773063770    -0.9780654727
| 10>  C        1.5936738477    -2.5691220323    -2.1520239726
| 11>  C        0.4141870062    -2.1659682695    -1.2100049965
| 12>  C        1.3361314334    -2.5860964634    -0.0230473148
| 13>  O        1.3562882550    -3.9859747964     0.1328097756
| 14>  H        1.1697997199     1.5525845530     0.2526137665
| 15>  H       -0.2136992052     1.8265272181    -0.8424989861
| 16>  H       -0.4906718436     1.6235659600     0.9086878680
| 17>  H        0.3365853469    -0.1142883455    -2.0708475086
| 18>  H        3.4860644751    -2.0855257101    -0.8476564350
| 19>  H        1.6828946399    -2.0651403742    -3.1169982549
| 20>  H        1.6903422957    -3.6485204910    -2.2485746408
| 21>  H       -0.6031470169    -2.5360682286    -1.3184877223
| 22>  H        1.1861089412    -2.0594480470     0.9243609172
| 23>  H        2.0444775456    -4.2020024251     0.7697745701
| 24> *
| 25>
| 26>                          ****END OF INPUT****

CARTESIAN COORDINATES (ANGSTROEM)
---------------------------------
  C      0.120205    1.298978    0.063836
  O     -0.057202   -0.101056   -0.062306
  C      0.611515   -0.651689   -1.149780
  O      2.050777   -0.584573   -1.000932
  C      2.409535   -1.977306   -0.978065
  C      1.593674   -2.569122   -2.152024
  C      0.414187   -2.165968   -1.210005
  C      1.336131   -2.586096   -0.023047
  O      1.356288   -3.985975    0.132810
  H      1.169800    1.552585    0.252614
  H     -0.213699    1.826527   -0.842499
  H     -0.490672    1.623566    0.908688
  H      0.336585   -0.114288   -2.070848
  H      3.486064   -2.085526   -0.847656
  H      1.682895   -2.065140   -3.116998
  H      1.690342   -3.648520   -2.248575
  H     -0.603147   -2.536068   -1.318488
  H      1.186109   -2.059448    0.924361
  H      2.044478   -4.202002    0.769775

 Total Charge           Charge          ....    0
 Multiplicity           Mult            ....    1
 Number of Electrons    NEL             ....   70
 Basis Dimension        Dim             ....  339

ORBITAL ENERGIES
----------------

  NO   OCC          E(Eh)            E(eV)
   0   2.0000     -20.565259      -559.6092
   1   2.0000     -20.561633      -559.5105
   2   2.0000     -20.555159      -559.3343
   3   2.0000     -11.331241      -308.3388
   4   2.0000     -11.285303      -307.0887
   5   2.0000     -11.283754      -307.0466
   6   2.0000     -11.270128      -306.6758
   7   2.0000     -11.238519      -305.8157
   8   2.0000     -11.226285      -305.4827
   9   2.0000      -1.421478       -38.6804
  10   2.0000      -1.374435       -37.4003
  11   2.0000      -1.350547       -36.7503
  12   2.0000      -1.115282       -30.3484
  13   2.0000      -0.987506       -26.8714
  14   2.0000      -0.911216       -24.7954
  15   2.0000      -0.897999       -24.4358
  16   2.0000      -0.792567       -21.5668
  17   2.0000      -0.777265       -21.1505
  18   2.0000      -0.722986       -19.6734
  19   2.0000      -0.697449       -18.9785
  20   2.0000      -0.684624       -18.6296
  21   2.0000      -0.649174       -17.6649
  22   2.0000      -0.630415       -17.1545
  23   2.0000      -0.608917       -16.5695
  24   2.0000      -0.577936       -15.7264
  25   2.0000      -0.560455       -15.2508
  26   2.0000      -0.554290       -15.0830
  27   2.0000      -0.521399       -14.1880
  28   2.0000      -0.512855       -13.9555
  29   2.0000      -0.502440       -13.6721
  30   2.0000      -0.479804       -13.0561
  31   2.0000      -0.458100       -12.4655
  32   2.0000      -0.439232       -11.9521
  33   2.0000      -0.431430       -11.7398
  34   2.0000      -0.394373       -10.7314
  35   0.0000       0.136689         3.7195
  36   0.0000       0.154165         4.1950
  37   0.0000       0.168160         4.5759
  38   0.0000       0.182944         4.9782
  39   0.0000       0.193032         5.2527

MULLIKEN ATOMIC CHARGES
-----------------------
   0 C :   -0.224753
   1 O :   -0.299401
   2 C :    0.135201
   3 O :   -0.335043
   4 C :    0.061101
   5 C :   -0.272508
   6 C :   -0.008200
   7 C :   -0.033730
   8 O :   -0.465496
   9 H :    0.139917
  10 H :    0.109078
  11 H :    0.139267
  12 H :    0.078931
  13 H :    0.133707
  14 H :    0.124158
  15 H :    0.134072
  16 H :    0.143349
  17 H :    0.115472
  18 H :    0.324879
Sum of atomic charges:   -0.0000000

LOEWDIN ATOMIC CHARGES
----------------------
   0 C :   -0.347099
   1 O :    0.171261
   2 C :   -0.368704
   3 O :    0.167880
   4 C :   -0.262738
   5 C :   -0.198528
   6 C :   -0.174606
   7 C :   -0.287134
   8 O :   -0.006047
   9 H :    0.108022
  10 H :    0.103292
  11 H :    0.113238
  12 H :    0.127076
  13 H :    0.127718
  14 H :    0.129533
  15 H :    0.143017
  16 H :    0.142806
  17 H :    0.131411
  18 H :    0.179603

  Mayer bond orders larger than 0.1
B(  0-C ,  1-O ) :   0.8905 B(  0-C ,  9-H ) :   0.9375 B(  0-C , 10-H ) :   0.9337
B(  0-C , 11-H ) :   0.9384 B(  1-O ,  2-C ) :   1.0504 B(  2-C ,  3-O ) :   0.9494
B(  2-C ,  6-C ) :   0.9221 B(  2-C , 12-H ) :   0.9260 B(  3-O ,  4-C ) :   0.9153
B(  4-C ,  5-C ) :   0.9230 B(  4-C ,  7-C ) :   0.8925 B(  4-C , 13-H ) :   0.9114
B(  5-C ,  6-C ) :   0.9135 B(  5-C , 14-H ) :   0.9300 B(  5-C , 15-H ) :   0.9054
B(  6-C ,  7-C ) :   0.8944 B(  6-C , 16-H ) :   0.8988 B(  7-C ,  8-O ) :   1.0720
B(  7-C , 17-H ) :   0.9499 B(  8-O , 18-H ) :   0.8417

MP2 TOTAL ENERGY:     -459.399844518 Eh
FINAL SINGLE POINT ENERGY      -459.399844518031

DIPOLE MOMENT
-------------
                                X             Y             Z
Electronic contribution:      0.86187      -2.66058       0.81424
Nuclear contribution   :     -0.57256       2.74074      -0.76148
                        -----------------------------------------
Total Dipole Moment    :      0.28931       0.08016       0.05276
                        -----------------------------------------
Magnitude (a.u.)       :      0.30481
Magnitude (Debye)      :      0.77476

                             ****ORCA TERMINATED NORMALLY****
TOTAL RUN TIME: 0 days 0 hours 26 minutes 28 seconds 514 msec
