                         Program Version 3.0.3 - RELEASE   -
|  1> ! RI-MP2 RIJK def2-TZVP def2-TZVP/C def2-TZVP/JK TIGHTSCF
|  2> % maxcore 2000
|  3> % mp2 density relaxed end
|  4> *xyz 0 1
|  5>  C       -0.5779461558     1.3044158539     0.0725033803
|  6>  C       -0.0473588495    -0.0936328950     0.0255112915
|  7>  C       -0.0816429525    -0.9410292515    -1.0053018180
|  8>  C        0.5947655404    -2.2544187951    -0.7044491227
|  9>  C        0.7808297735    -2.2194083868     0.8426315632
| 10>  C        0.6679464114    -0.7118857402     1.2092566104
| 11>  C       -0.2857354851    -3.0393468136     1.5431115490
| 12>  C       -0.0976863837    -4.5175540559     1.7655446894
| 13>  C       -0.0616515411    -3.5640708164     2.9377336853
| 14>  H        0.2223958597     2.0254744153     0.2850483288
| 15>  H       -1.0493998265     1.5915562108    -0.8715807584
| 16>  H       -1.3188543247     1.4223566599     0.8738459703
| 17>  H       -0.5140742295    -0.7135301126    -1.9747025954
| 18>  H        0.0092387486    -3.1261521966    -1.0204502092
| 19>  H        1.5589202457    -2.3278105213    -1.2277824871
| 20>  H        1.7596806158    -2.6195250046     1.1280945440
| 21>  H        1.6557480587    -0.2470862980     1.3426235046
| 22>  H        0.1317886239    -0.5620916825     2.1548806162
| 23>  H       -1.3004451209    -2.7198753375     1.3136923397
| 24>  H       -0.9541215748    -5.1747867261     1.6615622116
| 25>  H        0.8408844549    -4.9618599250     1.4491844411
| 26>  H        0.9009188582    -3.3733562378     3.4020711148
| 27>  H       -0.8935524966    -3.5707011635     3.6335367906
| 28> *
| 29>
| 30>                          ****END OF INPUT****

CARTESIAN COORDINATES (ANGSTROEM)
---------------------------------
  C     -0.577946    1.304416    0.072503
  C     -0.047359   -0.093633    0.025511
  C     -0.081643   -0.941029   -1.005302
  C      0.594766   -2.254419   -0.704449
  C      0.780830   -2.219408    0.842632
  C      0.667946   -0.711886    1.209257
  C     -0.285735   -3.039347    1.543112
  C     -0.097686   -4.517554    1.765545
  C     -0.061652   -3.564071    2.937734
  H      0.222396    2.025474    0.285048
  H     -1.049400    1.591556   -0.871581
  H     -1.318854    1.422357    0.873846
  H     -0.514074   -0.713530   -1.974703
  H      0.009239   -3.126152   -1.020450
  H      1.558920   -2.327811   -1.227782
  H      1.759681   -2.619525    1.128095
  H      1.655748   -0.247086    1.342624
  H      0.131789   -0.562092    2.154881
  H     -1.300445   -2.719875    1.313692
  H     -0.954122   -5.174787    1.661562
  H      0.840884   -4.961860    1.449184
  H      0.900919   -3.373356    3.402071
  H     -0.893552   -3.570701    3.633537

 Total Charge           Charge          ....    0
 Multiplicity           Mult            ....    1
 Number of Electrons    NEL             ....   68
 Basis Dimension        Dim             ....  363

ORBITAL ENERGIES
----------------

  NO   OCC          E(Eh)            E(eV)
   0   2.0000     -11.224490      -305.4339
   1   2.0000     -11.222892      -305.3904
   2   2.0000     -11.222453      -305.3785
   3   2.0000     -11.218399      -305.2682
   4   2.0000     -11.218172      -305.2620
   5   2.0000     -11.217565      -305.2455
   6   2.0000     -11.216081      -305.2051
   7   2.0000     -11.214852      -305.1716
   8   2.0000     -11.208729      -305.0050
   9   2.0000      -1.151344       -31.3297
  10   2.0000      -1.114498       -30.3270
  11   2.0000      -1.006382       -27.3850
  12   2.0000      -0.955659       -26.0048
  13   2.0000      -0.904457       -24.6115
  14   2.0000      -0.821654       -22.3583
  15   2.0000      -0.815850       -22.2004
  16   2.0000      -0.753005       -20.4903
  17   2.0000      -0.701579       -19.0909
  18   2.0000      -0.661389       -17.9973
  19   2.0000      -0.639096       -17.3907
  20   2.0000      -0.626105       -17.0372
  21   2.0000      -0.576985       -15.7006
  22   2.0000      -0.571820       -15.5600
  23   2.0000      -0.554298       -15.0832
  24   2.0000      -0.540400       -14.7050
  25   2.0000      -0.511547       -13.9199
  26   2.0000      -0.509799       -13.8723
  27   2.0000      -0.483406       -13.1541
  28   2.0000      -0.482036       -13.1169
  29   2.0000      -0.473821       -12.8933
  30   2.0000      -0.462109       -12.5746
  31   2.0000      -0.406684       -11.0664
  32   2.0000      -0.393947       -10.7198
  33   2.0000      -0.328332        -8.9344
  34   0.0000       0.138997         3.7823
  35   0.0000       0.151774         4.1300
  36   0.0000       0.159981         4.3533
  37   0.0000       0.165412         4.5011
  38   0.0000       0.172517         4.6944

MULLIKEN ATOMIC CHARGES
-----------------------
   0 C :   -0.434749
   1 C :    0.001266
   2 C :   -0.223664
   3 C :   -0.169071
   4 C :    0.006411
   5 C :   -0.200235
   6 C :   -0.203644
   7 C :   -0.254216
   8 C :   -0.254920
   9 H :    0.135396
  10 H :    0.134694
  11 H :    0.136580
  12 H :    0.116186
  13 H :    0.125873
  14 H :    0.111619
  15 H :    0.100409
  16 H :    0.114202
  17 H :    0.126517
  18 H :    0.129062
  19 H :    0.127018
  20 H :    0.124363
  21 H :    0.124104
  22 H :    0.126797
Sum of atomic charges:    0.0000000

LOEWDIN ATOMIC CHARGES
----------------------
   0 C :   -0.276776
   1 C :   -0.195650
   2 C :   -0.149182
   3 C :   -0.216112
   4 C :   -0.206027
   5 C :   -0.188825
   6 C :   -0.215559
   7 C :   -0.231380
   8 C :   -0.231741
   9 H :    0.130310
  10 H :    0.129169
  11 H :    0.129858
  12 H :    0.135255
  13 H :    0.140303
  14 H :    0.138228
  15 H :    0.149550
  16 H :    0.140558
  17 H :    0.142470
  18 H :    0.153062
  19 H :    0.129276
  20 H :    0.132041
  21 H :    0.132001
  22 H :    0.129172

  Mayer bond orders larger than 0.1
B(  0-C ,  1-C ) :   0.8962 B(  0-C ,  9-H ) :   0.9290 B(  0-C , 10-H ) :   0.9482
B(  0-C , 11-H ) :   0.9356 B(  1-C ,  2-C ) :   1.7555 B(  1-C ,  5-C ) :   0.9589
B(  2-C ,  3-C ) :   0.9546 B(  2-C , 12-H ) :   0.9285 B(  3-C ,  4-C ) :   0.9033
B(  3-C , 13-H ) :   0.9287 B(  3-C , 14-H ) :   0.9093 B(  4-C ,  5-C ) :   0.8957
B(  4-C ,  6-C ) :   0.8989 B(  4-C , 15-H ) :   0.9247 B(  5-C , 16-H ) :   0.9003
B(  5-C , 17-H ) :   0.9234 B(  6-C ,  7-C ) :   0.8865 B(  6-C ,  8-C ) :   0.8856
B(  6-C , 18-H ) :   0.9252 B(  7-C ,  8-C ) :   0.9141 B(  7-C , 19-H ) :   0.9304
B(  7-C , 20-H ) :   0.9261 B(  8-C , 21-H ) :   0.9259 B(  8-C , 22-H ) :   0.9303

MP2 TOTAL ENERGY:     -350.507696863 Eh
FINAL SINGLE POINT ENERGY      -350.507696863164

DIPOLE MOMENT
-------------
                                X             Y             Z
Electronic contribution:      0.29910      -0.39971      -1.41903
Nuclear contribution   :     -0.28022       0.48874       1.45118
                        -----------------------------------------
Total Dipole Moment    :      0.01887       0.08902       0.03214
                        -----------------------------------------
Magnitude (a.u.)       :      0.09651
Magnitude (Debye)      :      0.24531

                             ****ORCA TERMINATED NORMALLY****
TOTAL RUN TIME: 0 days 0 hours 21 minutes 12 seconds 785 msec
