                         Program Version 3.0.3 - RELEASE   -
|  1> ! RI-MP2 RIJK def2-TZVP def2-TZVP/C def2-TZVP/JK TIGHTSCF
|  2> % maxcore 2000
|  3> % mp2 density relaxed end
|  4> *xyz 0 1
|  5>  C        0.1134258251     1.5039579944    -0.0316287218
|  6>  C        0.0218179508    -0.0145751013     0.1462316082
|  7>  C       -1.4021706156    -0.5446866274     0.0164641625
|  8>  C       -2.1011241291    -0.5134741764    -1.3959396282
|  9>  C       -2.2624112729    -2.0303396669    -1.3083737195
| 10>  O       -0.9584043533    -2.6111490800    -1.1322414044
| 11>  C       -1.5807287998    -2.0751554646     0.0214256200
| 12>  C       -3.3443908640    -2.9070396735    -1.7860274843
| 13>  O       -4.3484313639    -2.5036343769    -2.3213837805
| 14>  H        1.1478217916     1.8490871076     0.0571881988
| 15>  H       -0.2562529100     1.8130035736    -1.0151936066
| 16>  H       -0.4797060201     2.0300832763     0.7246651977
| 17>  H        0.6499572341    -0.5196788737    -0.5959631099
| 18>  H        0.4175770398    -0.2941265951     1.1314803859
| 19>  H       -2.0562764694    -0.0886915699     0.7671169741
| 20>  H       -3.0574247452     0.0106716661    -1.3968149273
| 21>  H       -1.4914068479    -0.1726437785    -2.2356473283
| 22>  H       -1.7359077124    -2.7485902765     0.8583504735
| 23>  H       -3.1596735677    -3.9859439673    -1.5912243100
| 24> *
| 25>
| 26>                          ****END OF INPUT****

CARTESIAN COORDINATES (ANGSTROEM)
---------------------------------
  C      0.113426    1.503958   -0.031629
  C      0.021818   -0.014575    0.146232
  C     -1.402171   -0.544687    0.016464
  C     -2.101124   -0.513474   -1.395940
  C     -2.262411   -2.030340   -1.308374
  O     -0.958404   -2.611149   -1.132241
  C     -1.580729   -2.075155    0.021426
  C     -3.344391   -2.907040   -1.786027
  O     -4.348431   -2.503634   -2.321384
  H      1.147822    1.849087    0.057188
  H     -0.256253    1.813004   -1.015194
  H     -0.479706    2.030083    0.724665
  H      0.649957   -0.519679   -0.595963
  H      0.417577   -0.294127    1.131480
  H     -2.056276   -0.088692    0.767117
  H     -3.057425    0.010672   -1.396815
  H     -1.491407   -0.172644   -2.235647
  H     -1.735908   -2.748590    0.858350
  H     -3.159674   -3.985944   -1.591224

 Total Charge           Charge          ....    0
 Multiplicity           Mult            ....    1
 Number of Electrons    NEL             ....   68
 Basis Dimension        Dim             ....  339

ORBITAL ENERGIES
----------------

  NO   OCC          E(Eh)            E(eV)
   0   2.0000     -20.594494      -560.4047
   1   2.0000     -20.564686      -559.5935
   2   2.0000     -11.342214      -308.6373
   3   2.0000     -11.309755      -307.7541
   4   2.0000     -11.305230      -307.6310
   5   2.0000     -11.252909      -306.2072
   6   2.0000     -11.244080      -305.9670
   7   2.0000     -11.229455      -305.5690
   8   2.0000     -11.221795      -305.3606
   9   2.0000      -1.446976       -39.3742
  10   2.0000      -1.400718       -38.1155
  11   2.0000      -1.115744       -30.3609
  12   2.0000      -1.034200       -28.1420
  13   2.0000      -0.963527       -26.2189
  14   2.0000      -0.910853       -24.7856
  15   2.0000      -0.870081       -23.6761
  16   2.0000      -0.788748       -21.4629
  17   2.0000      -0.758348       -20.6357
  18   2.0000      -0.721258       -19.6264
  19   2.0000      -0.680023       -18.5044
  20   2.0000      -0.637617       -17.3505
  21   2.0000      -0.634039       -17.2531
  22   2.0000      -0.613963       -16.7068
  23   2.0000      -0.596361       -16.2278
  24   2.0000      -0.565012       -15.3748
  25   2.0000      -0.544910       -14.8278
  26   2.0000      -0.535726       -14.5779
  27   2.0000      -0.523738       -14.2516
  28   2.0000      -0.502910       -13.6849
  29   2.0000      -0.490881       -13.3576
  30   2.0000      -0.479782       -13.0555
  31   2.0000      -0.455885       -12.4053
  32   2.0000      -0.430627       -11.7179
  33   2.0000      -0.402289       -10.9468
  34   0.0000       0.109288         2.9739
  35   0.0000       0.132289         3.5998
  36   0.0000       0.159548         4.3415
  37   0.0000       0.164933         4.4880
  38   0.0000       0.169179         4.6036

MULLIKEN ATOMIC CHARGES
-----------------------
   0 C :   -0.390524
   1 C :   -0.260559
   2 C :    0.012612
   3 C :   -0.256427
   4 C :    0.188830
   5 O :   -0.312201
   6 C :   -0.015466
   7 C :    0.036948
   8 O :   -0.266945
   9 H :    0.138102
  10 H :    0.129323
  11 H :    0.122464
  12 H :    0.133785
  13 H :    0.113857
  14 H :    0.109886
  15 H :    0.144293
  16 H :    0.127725
  17 H :    0.149556
  18 H :    0.094742
Sum of atomic charges:   -0.0000000

LOEWDIN ATOMIC CHARGES
----------------------
   0 C :   -0.314928
   1 C :   -0.275203
   2 C :   -0.207061
   3 C :   -0.161385
   4 C :   -0.273427
   5 O :    0.215932
   6 C :   -0.194893
   7 C :   -0.272352
   8 O :    0.137192
   9 H :    0.122797
  10 H :    0.121730
  11 H :    0.120866
  12 H :    0.143469
  13 H :    0.139369
  14 H :    0.155232
  15 H :    0.146098
  16 H :    0.139318
  17 H :    0.134394
  18 H :    0.122853

  Mayer bond orders larger than 0.1
B(  0-C ,  1-C ) :   0.9186 B(  0-C ,  9-H ) :   0.9412 B(  0-C , 10-H ) :   0.9401
B(  0-C , 11-H ) :   0.9366 B(  1-C ,  2-C ) :   0.8925 B(  1-C , 12-H ) :   0.9353
B(  1-C , 13-H ) :   0.9327 B(  2-C ,  3-C ) :   0.9739 B(  2-C ,  6-C ) :   0.8786
B(  2-C , 14-H ) :   0.9067 B(  3-C ,  4-C ) :   0.9133 B(  3-C , 15-H ) :   0.9077
B(  3-C , 16-H ) :   0.9070 B(  4-C ,  5-O ) :   0.8893 B(  4-C ,  6-C ) :   0.8103
B(  4-C ,  7-C ) :   0.8729 B(  5-O ,  6-C ) :   0.9047 B(  6-C , 17-H ) :   0.9154
B(  7-C ,  8-O ) :   1.9925 B(  7-C , 18-H ) :   0.9574

MP2 TOTAL ENERGY:     -422.289714857 Eh
FINAL SINGLE POINT ENERGY      -422.289714856892

DIPOLE MOMENT
-------------
                                X             Y             Z
Electronic contribution:     -6.55980      -9.73562      -4.20872
Nuclear contribution   :      7.06552      10.10805       5.11345
                        -----------------------------------------
Total Dipole Moment    :      0.50572       0.37243       0.90474
                        -----------------------------------------
Magnitude (a.u.)       :      1.10137
Magnitude (Debye)      :      2.79945

                             ****ORCA TERMINATED NORMALLY****
TOTAL RUN TIME: 0 days 0 hours 29 minutes 4 seconds 975 msec
