                         Program Version 3.0.3 - RELEASE   -
|  1> ! RI-MP2 RIJK def2-TZVP def2-TZVP/C def2-TZVP/JK TIGHTSCF
|  2> % maxcore 2000
|  3> % mp2 density relaxed end
|  4> *xyz 0 1
|  5>  C       -0.0026564348     1.5684896757    -0.1252196414
|  6>  C        1.5434348348     1.5085119123     0.0196561797
|  7>  C        1.3880438754     0.1088757844     0.6815000165
|  8>  C        1.3292541069     0.1669695665     2.2184913527
|  9>  C        0.3259496404    -0.8332737416     2.8090746594
| 10>  C       -1.0843193101    -0.5518020538     2.2723483554
| 11>  C       -1.1393163096    -0.7226730887     0.7463441998
| 12>  C       -0.0220306621     0.0187952828     0.0118563901
| 13>  H       -0.4722349804     2.0676944262     0.7276450078
| 14>  H       -0.4154694247     1.9972693894    -1.0419876603
| 15>  H        2.0354859193     1.4484464033    -0.9554619986
| 16>  H        2.0338200504     2.2881486191     0.6095525691
| 17>  H        2.1017185175    -0.6599172398     0.3683627456
| 18>  H        2.3321502108     0.0056779443     2.6304319394
| 19>  H        1.0302578347     1.1738467800     2.5399198778
| 20>  H        0.6200705551    -1.8603536731     2.5496980297
| 21>  H        0.3368565296    -0.7723962031     3.9032525490
| 22>  H       -1.8171716884    -1.2168898601     2.7427722054
| 23>  H       -1.3730391868     0.4709901913     2.5508067840
| 24>  H       -1.0509036866    -1.7945020209     0.5201481376
| 25>  H       -2.1171308828    -0.4100065798     0.3578632103
| 26>  H        0.0919900014    -0.4087468042    -0.9908765290
| 27> *
| 28>
| 29>                          ****END OF INPUT****

CARTESIAN COORDINATES (ANGSTROEM)
---------------------------------
  C     -0.002656    1.568490   -0.125220
  C      1.543435    1.508512    0.019656
  C      1.388044    0.108876    0.681500
  C      1.329254    0.166970    2.218491
  C      0.325950   -0.833274    2.809075
  C     -1.084319   -0.551802    2.272348
  C     -1.139316   -0.722673    0.746344
  C     -0.022031    0.018795    0.011856
  H     -0.472235    2.067694    0.727645
  H     -0.415469    1.997269   -1.041988
  H      2.035486    1.448446   -0.955462
  H      2.033820    2.288149    0.609553
  H      2.101719   -0.659917    0.368363
  H      2.332150    0.005678    2.630432
  H      1.030258    1.173847    2.539920
  H      0.620071   -1.860354    2.549698
  H      0.336857   -0.772396    3.903253
  H     -1.817172   -1.216890    2.742772
  H     -1.373039    0.470990    2.550807
  H     -1.050904   -1.794502    0.520148
  H     -2.117131   -0.410007    0.357863
  H      0.091990   -0.408747   -0.990877

 Total Charge           Charge          ....    0
 Multiplicity           Mult            ....    1
 Number of Electrons    NEL             ....   62
 Basis Dimension        Dim             ....  332

ORBITAL ENERGIES
----------------

  NO   OCC          E(Eh)            E(eV)
   0   2.0000     -11.217101      -305.2328
   1   2.0000     -11.216571      -305.2184
   2   2.0000     -11.213206      -305.1268
   3   2.0000     -11.212700      -305.1131
   4   2.0000     -11.212490      -305.1074
   5   2.0000     -11.212152      -305.0982
   6   2.0000     -11.211724      -305.0865
   7   2.0000     -11.211400      -305.0777
   8   2.0000      -1.141310       -31.0566
   9   2.0000      -1.055926       -28.7332
  10   2.0000      -1.000775       -27.2325
  11   2.0000      -0.914429       -24.8829
  12   2.0000      -0.866857       -23.5884
  13   2.0000      -0.816051       -22.2059
  14   2.0000      -0.785037       -21.3619
  15   2.0000      -0.703138       -19.1334
  16   2.0000      -0.660117       -17.9627
  17   2.0000      -0.620771       -16.8920
  18   2.0000      -0.606005       -16.4902
  19   2.0000      -0.591241       -16.0885
  20   2.0000      -0.574893       -15.6436
  21   2.0000      -0.533175       -14.5084
  22   2.0000      -0.516207       -14.0467
  23   2.0000      -0.495299       -13.4778
  24   2.0000      -0.492620       -13.4049
  25   2.0000      -0.480398       -13.0723
  26   2.0000      -0.467636       -12.7250
  27   2.0000      -0.445569       -12.1245
  28   2.0000      -0.419598       -11.4178
  29   2.0000      -0.410645       -11.1742
  30   2.0000      -0.400283       -10.8923
  31   0.0000       0.135102         3.6763
  32   0.0000       0.151766         4.1298
  33   0.0000       0.158203         4.3049
  34   0.0000       0.164906         4.4873
  35   0.0000       0.191358         5.2071

MULLIKEN ATOMIC CHARGES
-----------------------
   0 C :   -0.282375
   1 C :   -0.236652
   2 C :   -0.033489
   3 C :   -0.280006
   4 C :   -0.198103
   5 C :   -0.244027
   6 C :   -0.226377
   7 C :   -0.048986
   8 H :    0.114038
   9 H :    0.115549
  10 H :    0.111608
  11 H :    0.112621
  12 H :    0.101146
  13 H :    0.121691
  14 H :    0.110882
  15 H :    0.099632
  16 H :    0.120929
  17 H :    0.121881
  18 H :    0.104116
  19 H :    0.106804
  20 H :    0.116110
  21 H :    0.093009
Sum of atomic charges:   -0.0000000

LOEWDIN ATOMIC CHARGES
----------------------
   0 C :   -0.223058
   1 C :   -0.225045
   2 C :   -0.203884
   3 C :   -0.244610
   4 C :   -0.264720
   5 C :   -0.267180
   6 C :   -0.252999
   7 C :   -0.211433
   8 H :    0.131932
   9 H :    0.121242
  10 H :    0.132808
  11 H :    0.122762
  12 H :    0.136360
  13 H :    0.136535
  14 H :    0.140854
  15 H :    0.136622
  16 H :    0.134486
  17 H :    0.134657
  18 H :    0.134854
  19 H :    0.139997
  20 H :    0.138359
  21 H :    0.151459

  Mayer bond orders larger than 0.1
B(  0-C ,  1-C ) :   0.9404 B(  0-C ,  7-C ) :   0.9305 B(  0-C ,  8-H ) :   0.9280
B(  0-C ,  9-H ) :   0.9261 B(  1-C ,  2-C ) :   0.9039 B(  1-C , 10-H ) :   0.9252
B(  1-C , 11-H ) :   0.9253 B(  2-C ,  3-C ) :   0.9295 B(  2-C ,  7-C ) :   0.9150
B(  2-C , 12-H ) :   0.9254 B(  3-C ,  4-C ) :   0.9258 B(  3-C , 13-H ) :   0.9318
B(  3-C , 14-H ) :   0.9296 B(  4-C ,  5-C ) :   0.9221 B(  4-C , 15-H ) :   0.9295
B(  4-C , 16-H ) :   0.9324 B(  5-C ,  6-C ) :   0.9386 B(  5-C , 17-H ) :   0.9328
B(  5-C , 18-H ) :   0.9363 B(  6-C ,  7-C ) :   0.9056 B(  6-C , 19-H ) :   0.9296
B(  6-C , 20-H ) :   0.9286 B(  7-C , 21-H ) :   0.9224

MP2 TOTAL ENERGY:     -312.507407953 Eh
FINAL SINGLE POINT ENERGY      -312.507407953447

DIPOLE MOMENT
-------------
                                X             Y             Z
Electronic contribution:      0.60786      -0.15611      -1.13958
Nuclear contribution   :     -0.61821       0.09608       1.14732
                        -----------------------------------------
Total Dipole Moment    :     -0.01035      -0.06003       0.00775
                        -----------------------------------------
Magnitude (a.u.)       :      0.06141
Magnitude (Debye)      :      0.15609

                             ****ORCA TERMINATED NORMALLY****
TOTAL RUN TIME: 0 days 0 hours 15 minutes 57 seconds 534 msec
