                         Program Version 3.0.3 - RELEASE   -
|  1> ! RI-MP2 RIJK def2-TZVP def2-TZVP/C def2-TZVP/JK TIGHTSCF
|  2> % maxcore 2000
|  3> % mp2 density relaxed end
|  4> *xyz 0 1
|  5>  C       -0.7238746801     1.1075325019    -0.1346712538
|  6>  C        0.0675946906    -0.1900297267    -0.1338668120
|  7>  C        1.3866725499    -0.2812465509    -0.9458280096
|  8>  O        1.9603853425     1.0111729655    -1.0623235035
|  9>  C        2.0031388086    -1.1356953417     0.1908930106
| 10>  C        0.8815374435    -0.6587490650     1.1519825808
| 11>  C        1.2879791270     0.4698570738     2.1004483940
| 12>  C        0.1550111075    -1.7483988180     1.8988979081
| 13>  O        0.3170622925    -2.9328389013     1.7380994058
| 14>  H       -0.0979569758     1.9645541062     0.1194149142
| 15>  H       -1.1455658781     1.2913611096    -1.1286196716
| 16>  H       -1.5570213765     1.0607836814     0.5745238364
| 17>  H       -0.5783879692    -1.0176814019    -0.4463764033
| 18>  H        1.3086453927    -0.7582865235    -1.9319465017
| 19>  H        2.8603770959     0.9059945762    -1.3871544722
| 20>  H        1.9321072478    -2.2102410140     0.0080388391
| 21>  H        3.0277266704    -0.8802293417     0.4754233137
| 22>  H        1.7617651568     1.2818551186     1.5455091542
| 23>  H        0.4240604603     0.8770358987     2.6379793421
| 24>  H        2.0036895294     0.1047190127     2.8459510009
| 25>  H       -0.6070905558    -1.3754025598     2.6245931578
| 26> *
| 27>
| 28>                          ****END OF INPUT****

CARTESIAN COORDINATES (ANGSTROEM)
---------------------------------
  C     -0.723875    1.107533   -0.134671
  C      0.067595   -0.190030   -0.133867
  C      1.386673   -0.281247   -0.945828
  O      1.960385    1.011173   -1.062324
  C      2.003139   -1.135695    0.190893
  C      0.881537   -0.658749    1.151983
  C      1.287979    0.469857    2.100448
  C      0.155011   -1.748399    1.898898
  O      0.317062   -2.932839    1.738099
  H     -0.097957    1.964554    0.119415
  H     -1.145566    1.291361   -1.128620
  H     -1.557021    1.060784    0.574524
  H     -0.578388   -1.017681   -0.446376
  H      1.308645   -0.758287   -1.931947
  H      2.860377    0.905995   -1.387154
  H      1.932107   -2.210241    0.008039
  H      3.027727   -0.880229    0.475423
  H      1.761765    1.281855    1.545509
  H      0.424060    0.877036    2.637979
  H      2.003690    0.104719    2.845951
  H     -0.607091   -1.375403    2.624593

 Total Charge           Charge          ....    0
 Multiplicity           Mult            ....    1
 Number of Electrons    NEL             ....   70
 Basis Dimension        Dim             ....  351

ORBITAL ENERGIES
----------------

  NO   OCC          E(Eh)            E(eV)
   0   2.0000     -20.563397      -559.5585
   1   2.0000     -20.553082      -559.2778
   2   2.0000     -11.325508      -308.1827
   3   2.0000     -11.285463      -307.0931
   4   2.0000     -11.247366      -306.0564
   5   2.0000     -11.241957      -305.9092
   6   2.0000     -11.225575      -305.4634
   7   2.0000     -11.224448      -305.4327
   8   2.0000     -11.217073      -305.2321
   9   2.0000      -1.392007       -37.8784
  10   2.0000      -1.370999       -37.3068
  11   2.0000      -1.146649       -31.2019
  12   2.0000      -1.008599       -27.4454
  13   2.0000      -0.985348       -26.8127
  14   2.0000      -0.893499       -24.3134
  15   2.0000      -0.862621       -23.4731
  16   2.0000      -0.803181       -21.8557
  17   2.0000      -0.730233       -19.8707
  18   2.0000      -0.704239       -19.1633
  19   2.0000      -0.668727       -18.1970
  20   2.0000      -0.651493       -17.7280
  21   2.0000      -0.618311       -16.8251
  22   2.0000      -0.608252       -16.5514
  23   2.0000      -0.592986       -16.1360
  24   2.0000      -0.569832       -15.5059
  25   2.0000      -0.553616       -15.0647
  26   2.0000      -0.543462       -14.7883
  27   2.0000      -0.533155       -14.5079
  28   2.0000      -0.526194       -14.3185
  29   2.0000      -0.507560       -13.8114
  30   2.0000      -0.489748       -13.3267
  31   2.0000      -0.450595       -12.2613
  32   2.0000      -0.443008       -12.0549
  33   2.0000      -0.424444       -11.5497
  34   2.0000      -0.396756       -10.7963
  35   0.0000       0.126027         3.4294
  36   0.0000       0.131216         3.5706
  37   0.0000       0.148024         4.0279
  38   0.0000       0.161185         4.3861
  39   0.0000       0.174207         4.7404

MULLIKEN ATOMIC CHARGES
-----------------------
   0 C :   -0.422644
   1 C :   -0.078445
   2 C :    0.023907
   3 O :   -0.469174
   4 C :   -0.314932
   5 C :    0.225555
   6 C :   -0.489252
   7 C :    0.062621
   8 O :   -0.274663
   9 H :    0.150697
  10 H :    0.137162
  11 H :    0.131818
  12 H :    0.114912
  13 H :    0.101357
  14 H :    0.316705
  15 H :    0.143883
  16 H :    0.123517
  17 H :    0.165655
  18 H :    0.134809
  19 H :    0.141345
  20 H :    0.075166
Sum of atomic charges:   -0.0000000

LOEWDIN ATOMIC CHARGES
----------------------
   0 C :   -0.293222
   1 C :   -0.185293
   2 C :   -0.298722
   3 O :   -0.015443
   4 C :   -0.183236
   5 C :   -0.256361
   6 C :   -0.266812
   7 C :   -0.260054
   8 O :    0.131967
   9 H :    0.129457
  10 H :    0.130093
  11 H :    0.124923
  12 H :    0.159333
  13 H :    0.121922
  14 H :    0.176173
  15 H :    0.145868
  16 H :    0.131519
  17 H :    0.134638
  18 H :    0.127794
  19 H :    0.129628
  20 H :    0.115830

  Mayer bond orders larger than 0.1
B(  0-C ,  1-C ) :   0.9002 B(  0-C ,  9-H ) :   0.9310 B(  0-C , 10-H ) :   0.9322
B(  0-C , 11-H ) :   0.9400 B(  1-C ,  2-C ) :   0.9092 B(  1-C ,  5-C ) :   0.8842
B(  1-C , 12-H ) :   0.9130 B(  2-C ,  3-O ) :   1.0264 B(  2-C ,  4-C ) :   0.9182
B(  2-C , 13-H ) :   0.9540 B(  3-O , 14-H ) :   0.8430 B(  4-C ,  5-C ) :   0.8647
B(  4-C , 15-H ) :   0.8959 B(  4-C , 16-H ) :   0.9296 B(  5-C ,  6-C ) :   0.8719
B(  5-C ,  7-C ) :   0.8257 B(  6-C , 17-H ) :   0.9365 B(  6-C , 18-H ) :   0.9315
B(  6-C , 19-H ) :   0.9339 B(  7-C ,  8-O ) :   1.9917 B(  7-C , 20-H ) :   0.9483

MP2 TOTAL ENERGY:     -423.524902869 Eh
FINAL SINGLE POINT ENERGY      -423.524902869029

DIPOLE MOMENT
-------------
                                X             Y             Z
Electronic contribution:      0.90999      -5.68620       0.00171
Nuclear contribution   :     -0.59859       6.31376      -0.26533
                        -----------------------------------------
Total Dipole Moment    :      0.31140       0.62756      -0.26362
                        -----------------------------------------
Magnitude (a.u.)       :      0.74853
Magnitude (Debye)      :      1.90262

                             ****ORCA TERMINATED NORMALLY****
TOTAL RUN TIME: 0 days 0 hours 20 minutes 4 seconds 303 msec
