                         Program Version 3.0.3 - RELEASE   -
|  1> ! RI-MP2 RIJK def2-TZVP def2-TZVP/C def2-TZVP/JK TIGHTSCF
|  2> % maxcore 2000
|  3> % mp2 density relaxed end
|  4> *xyz 0 1
|  5>  C       -0.1901070650     1.5611918182     0.0467822964
|  6>  C        0.0114506918     0.0651597430     0.0562875444
|  7>  O       -1.1315597548    -0.6781816290    -0.2794065079
|  8>  C        1.3305232236    -0.5487795127    -0.2755127138
|  9>  C        0.8051366347    -0.6419755781     1.1572936213
| 10>  C        1.4830173035     0.1160720655     2.2299387129
| 11>  O        2.1622466398     1.1109916674     2.0388719722
| 12>  C        1.3133058016    -0.3899628811     3.6564451070
| 13>  O        1.9869397905     0.4219036272     4.5679903822
| 14>  H        0.6972026410     2.0834162237     0.4062218784
| 15>  H       -0.3994347963     1.9009286403    -0.9750320247
| 16>  H       -1.0441764736     1.8329019010     0.6745691002
| 17>  H       -1.3657752155    -0.4598155727    -1.1888481360
| 18>  H        1.3328624341    -1.4681609871    -0.8490080159
| 19>  H        2.1822061741     0.1093136133    -0.4106361566
| 20>  H        0.3678960242    -1.5887713821     1.4549812484
| 21>  H        0.2328976916    -0.4369591501     3.8756252915
| 22>  H        1.6780681908    -1.4309179992     3.6940924158
| 23>  H        2.4041461139     1.1098508125     4.0234735741
| 24> *
| 25>
| 26>                          ****END OF INPUT****

CARTESIAN COORDINATES (ANGSTROEM)
---------------------------------
  C     -0.190107    1.561192    0.046782
  C      0.011451    0.065160    0.056288
  O     -1.131560   -0.678182   -0.279407
  C      1.330523   -0.548780   -0.275513
  C      0.805137   -0.641976    1.157294
  C      1.483017    0.116072    2.229939
  O      2.162247    1.110992    2.038872
  C      1.313306   -0.389963    3.656445
  O      1.986940    0.421904    4.567990
  H      0.697203    2.083416    0.406222
  H     -0.399435    1.900929   -0.975032
  H     -1.044176    1.832902    0.674569
  H     -1.365775   -0.459816   -1.188848
  H      1.332862   -1.468161   -0.849008
  H      2.182206    0.109314   -0.410636
  H      0.367896   -1.588771    1.454981
  H      0.232898   -0.436959    3.875625
  H      1.678068   -1.430918    3.694092
  H      2.404146    1.109851    4.023474

 Total Charge           Charge          ....    0
 Multiplicity           Mult            ....    1
 Number of Electrons    NEL             ....   70
 Basis Dimension        Dim             ....  339

ORBITAL ENERGIES
----------------

  NO   OCC          E(Eh)            E(eV)
   0   2.0000     -20.578159      -559.9602
   1   2.0000     -20.558107      -559.4145
   2   2.0000     -20.552981      -559.2750
   3   2.0000     -11.344474      -308.6988
   4   2.0000     -11.317019      -307.9517
   5   2.0000     -11.291518      -307.2578
   6   2.0000     -11.252251      -306.1893
   7   2.0000     -11.247221      -306.0524
   8   2.0000     -11.228178      -305.5343
   9   2.0000      -1.411712       -38.4146
  10   2.0000      -1.391195       -37.8564
  11   2.0000      -1.357516       -36.9399
  12   2.0000      -1.156773       -31.4774
  13   2.0000      -1.008141       -27.4329
  14   2.0000      -0.979147       -26.6439
  15   2.0000      -0.877313       -23.8729
  16   2.0000      -0.816500       -22.2181
  17   2.0000      -0.753836       -20.5129
  18   2.0000      -0.724288       -19.7089
  19   2.0000      -0.691679       -18.8215
  20   2.0000      -0.670164       -18.2361
  21   2.0000      -0.653892       -17.7933
  22   2.0000      -0.642613       -17.4864
  23   2.0000      -0.617639       -16.8068
  24   2.0000      -0.593407       -16.1474
  25   2.0000      -0.577328       -15.7099
  26   2.0000      -0.568793       -15.4776
  27   2.0000      -0.541568       -14.7368
  28   2.0000      -0.537062       -14.6142
  29   2.0000      -0.527577       -14.3561
  30   2.0000      -0.507844       -13.8191
  31   2.0000      -0.452336       -12.3087
  32   2.0000      -0.448155       -12.1949
  33   2.0000      -0.424132       -11.5412
  34   2.0000      -0.408374       -11.1124
  35   0.0000       0.116550         3.1715
  36   0.0000       0.131891         3.5889
  37   0.0000       0.148100         4.0300
  38   0.0000       0.170240         4.6325
  39   0.0000       0.177549         4.8314

MULLIKEN ATOMIC CHARGES
-----------------------
   0 C :   -0.422420
   1 C :    0.216984
   2 O :   -0.458734
   3 C :   -0.287932
   4 C :   -0.144308
   5 C :    0.192321
   6 O :   -0.365162
   7 C :   -0.027742
   8 O :   -0.484712
   9 H :    0.166966
  10 H :    0.124160
  11 H :    0.143889
  12 H :    0.322571
  13 H :    0.149931
  14 H :    0.148339
  15 H :    0.145950
  16 H :    0.122348
  17 H :    0.121490
  18 H :    0.336061
Sum of atomic charges:    0.0000000

LOEWDIN ATOMIC CHARGES
----------------------
   0 C :   -0.270778
   1 C :   -0.356555
   2 O :    0.025295
   3 C :   -0.169999
   4 C :   -0.158768
   5 C :   -0.318845
   6 O :    0.124273
   7 C :   -0.334070
   8 O :   -0.034191
   9 H :    0.139601
  10 H :    0.127656
  11 H :    0.132485
  12 H :    0.184051
  13 H :    0.140622
  14 H :    0.146614
  15 H :    0.165439
  16 H :    0.138066
  17 H :    0.137024
  18 H :    0.182078

  Mayer bond orders larger than 0.1
B(  0-C ,  1-C ) :   0.9492 B(  0-C ,  9-H ) :   0.9186 B(  0-C , 10-H ) :   0.9213
B(  0-C , 11-H ) :   0.9370 B(  1-C ,  2-O ) :   1.0055 B(  1-C ,  3-C ) :   0.9221
B(  1-C ,  4-C ) :   0.7844 B(  2-O , 12-H ) :   0.8377 B(  3-C ,  4-C ) :   0.8427
B(  3-C , 13-H ) :   0.9232 B(  3-C , 14-H ) :   0.9051 B(  4-C ,  5-C ) :   0.9278
B(  4-C , 15-H ) :   0.9187 B(  5-C ,  6-O ) :   1.8261 B(  5-C ,  7-C ) :   0.9587
B(  7-C ,  8-O ) :   1.0155 B(  7-C , 16-H ) :   0.9048 B(  7-C , 17-H ) :   0.9082
B(  8-O , 18-H ) :   0.8028

MP2 TOTAL ENERGY:     -459.433677307 Eh
FINAL SINGLE POINT ENERGY      -459.433677306822

DIPOLE MOMENT
-------------
                                X             Y             Z
Electronic contribution:      1.86819      -0.61420       2.65156
Nuclear contribution   :     -2.32199       0.31060      -3.95422
                        -----------------------------------------
Total Dipole Moment    :     -0.45380      -0.30360      -1.30266
                        -----------------------------------------
Magnitude (a.u.)       :      1.41245
Magnitude (Debye)      :      3.59017

                             ****ORCA TERMINATED NORMALLY****
TOTAL RUN TIME: 0 days 0 hours 15 minutes 48 seconds 557 msec
