                         Program Version 3.0.3 - RELEASE   -
|  1> ! RI-MP2 RIJK def2-TZVP def2-TZVP/C def2-TZVP/JK TIGHTSCF
|  2> % maxcore 2000
|  3> % mp2 density relaxed end
|  4> *xyz 0 1
|  5>  C        0.0121556147     1.4609263447    -0.2455419400
|  6>  C        1.5307558122     1.3892286268     0.0791668507
|  7>  O        2.1101783892     2.2681503099     1.0152885822
|  8>  C        2.0677193382     1.8651874675     2.3791957700
|  9>  C        0.6851437130     1.5984613088     2.9379567122
| 10>  C       -0.1123824578     0.6219461567     2.5037412317
| 11>  C        0.2093587211    -0.2984912131     1.3863053553
| 12>  C        1.3052619889    -0.0879931720     0.4076980011
| 13>  N       -0.1505511198    -0.0220121811    -0.0361296589
| 14>  H       -0.5949789800     2.0861118421     0.4117552296
| 15>  H       -0.2009875094     1.7049499002    -1.2878299695
| 16>  H        2.1222444850     1.5017151644    -0.8334330511
| 17>  H        2.6931530838     0.9709654153     2.5217987546
| 18>  H        2.5429726951     2.6837479276     2.9249691009
| 19>  H        0.3487959423     2.2381556962     3.7497899678
| 20>  H       -1.0835933704     0.4722544044     2.9715076495
| 21>  H       -0.0032016382    -1.3451834029     1.5973077031
| 22>  H        1.9549649422    -0.9019651657     0.1008395810
| 23> *
| 24>
| 25>                          ****END OF INPUT****

CARTESIAN COORDINATES (ANGSTROEM)
---------------------------------
  C      0.012156    1.460926   -0.245542
  C      1.530756    1.389229    0.079167
  O      2.110178    2.268150    1.015289
  C      2.067719    1.865187    2.379196
  C      0.685144    1.598461    2.937957
  C     -0.112382    0.621946    2.503741
  C      0.209359   -0.298491    1.386305
  C      1.305262   -0.087993    0.407698
  N     -0.150551   -0.022012   -0.036130
  H     -0.594979    2.086112    0.411755
  H     -0.200988    1.704950   -1.287830
  H      2.122244    1.501715   -0.833433
  H      2.693153    0.970965    2.521799
  H      2.542973    2.683748    2.924969
  H      0.348796    2.238156    3.749790
  H     -1.083593    0.472254    2.971508
  H     -0.003202   -1.345183    1.597308
  H      1.954965   -0.901965    0.100840

 Total Charge           Charge          ....    0
 Multiplicity           Mult            ....    1
 Number of Electrons    NEL             ....   66
 Basis Dimension        Dim             ....  333

ORBITAL ENERGIES
----------------

  NO   OCC          E(Eh)            E(eV)
   0   2.0000     -20.559220      -559.4448
   1   2.0000     -15.567729      -423.6194
   2   2.0000     -11.289367      -307.1993
   3   2.0000     -11.285460      -307.0930
   4   2.0000     -11.271164      -306.7040
   5   2.0000     -11.265573      -306.5518
   6   2.0000     -11.249817      -306.1231
   7   2.0000     -11.241891      -305.9074
   8   2.0000     -11.239713      -305.8481
   9   2.0000      -1.381051       -37.5803
  10   2.0000      -1.287542       -35.0358
  11   2.0000      -1.087386       -29.5893
  12   2.0000      -0.994913       -27.0730
  13   2.0000      -0.966571       -26.3017
  14   2.0000      -0.916829       -24.9482
  15   2.0000      -0.830107       -22.5883
  16   2.0000      -0.752537       -20.4776
  17   2.0000      -0.740583       -20.1523
  18   2.0000      -0.718596       -19.5540
  19   2.0000      -0.670818       -18.2539
  20   2.0000      -0.630008       -17.1434
  21   2.0000      -0.620461       -16.8836
  22   2.0000      -0.607180       -16.5222
  23   2.0000      -0.595498       -16.2043
  24   2.0000      -0.571185       -15.5427
  25   2.0000      -0.545523       -14.8444
  26   2.0000      -0.509466       -13.8633
  27   2.0000      -0.480618       -13.0783
  28   2.0000      -0.449912       -12.2427
  29   2.0000      -0.439326       -11.9547
  30   2.0000      -0.421168       -11.4606
  31   2.0000      -0.379680       -10.3316
  32   2.0000      -0.364178        -9.9098
  33   0.0000       0.119949         3.2640
  34   0.0000       0.145757         3.9662
  35   0.0000       0.161307         4.3894
  36   0.0000       0.169429         4.6104
  37   0.0000       0.177570         4.8319

MULLIKEN ATOMIC CHARGES
-----------------------
   0 C :   -0.142612
   1 C :    0.076706
   2 O :   -0.307350
   3 C :   -0.029783
   4 C :   -0.165716
   5 C :   -0.205919
   6 C :    0.010980
   7 C :   -0.122738
   8 N :   -0.233951
   9 H :    0.119320
  10 H :    0.127201
  11 H :    0.110760
  12 H :    0.110812
  13 H :    0.133120
  14 H :    0.132649
  15 H :    0.131752
  16 H :    0.124062
  17 H :    0.130706
Sum of atomic charges:    0.0000000

LOEWDIN ATOMIC CHARGES
----------------------
   0 C :   -0.223479
   1 C :   -0.295613
   2 O :    0.173673
   3 C :   -0.300173
   4 C :   -0.160212
   5 C :   -0.156649
   6 C :   -0.231194
   7 C :   -0.181695
   8 N :    0.121528
   9 H :    0.127303
  10 H :    0.128808
  11 H :    0.147131
  12 H :    0.131642
  13 H :    0.134775
  14 H :    0.144314
  15 H :    0.149335
  16 H :    0.156867
  17 H :    0.133637

  Mayer bond orders larger than 0.1
B(  0-C ,  1-C ) :   0.9412 B(  0-C ,  8-N ) :   0.9138 B(  0-C ,  9-H ) :   0.9187
B(  0-C , 10-H ) :   0.9208 B(  1-C ,  2-O ) :   0.9625 B(  1-C ,  7-C ) :   0.8740
B(  1-C , 11-H ) :   0.9446 B(  2-O ,  3-C ) :   0.9384 B(  3-C ,  4-C ) :   0.9121
B(  3-C , 12-H ) :   0.9335 B(  3-C , 13-H ) :   0.9339 B(  4-C ,  5-C ) :   1.7859
B(  4-C , 14-H ) :   0.9232 B(  5-C ,  6-C ) :   0.9297 B(  5-C , 15-H ) :   0.9268
B(  6-C ,  7-C ) :   0.9450 B(  6-C ,  8-N ) :   0.9004 B(  6-C , 16-H ) :   0.9272
B(  7-C ,  8-N ) :   0.8510 B(  7-C , 17-H ) :   0.9060

MP2 TOTAL ENERGY:     -401.196439234 Eh
FINAL SINGLE POINT ENERGY      -401.196439233952

DIPOLE MOMENT
-------------
                                X             Y             Z
Electronic contribution:      0.25484      -0.37660      -1.16495
Nuclear contribution   :     -0.08890       0.33154       1.69683
                        -----------------------------------------
Total Dipole Moment    :      0.16594      -0.04506       0.53188
                        -----------------------------------------
Magnitude (a.u.)       :      0.55898
Magnitude (Debye)      :      1.42083

                             ****ORCA TERMINATED NORMALLY****
TOTAL RUN TIME: 0 days 0 hours 19 minutes 55 seconds 205 msec
