                         Program Version 3.0.3 - RELEASE   -
|  1> ! RI-MP2 RIJK def2-TZVP def2-TZVP/C def2-TZVP/JK TIGHTSCF
|  2> % maxcore 2000
|  3> % mp2 density relaxed end
|  4> *xyz 0 1
|  5>  C       -0.0266678765     1.5060031095     0.0513941892
|  6>  C       -0.0002681392     0.0031174330    -0.0122460334
|  7>  C        0.0404489091    -0.6877484587    -1.2227857516
|  8>  C        0.0622959572    -2.0783258738    -1.1766552619
|  9>  C        0.1063490467    -2.9232533029    -2.4201751060
| 10>  N        0.0447424913    -2.7314435062    -0.0060065089
| 11>  C        0.0056099263    -1.9879735329     1.1037489143
| 12>  C       -0.0141842660    -2.7129020818     2.4222728737
| 13>  N       -0.0177129591    -0.6502100482     1.1540812893
| 14>  H       -0.0097462444     1.9560646961    -0.9438678614
| 15>  H       -0.9244239051     1.8442901283     0.5783366939
| 16>  H        0.8325559568     1.8733555764     0.6213560125
| 17>  H        0.0545884925    -0.1584488219    -2.1687526932
| 18>  H        0.9959448711    -3.5609853202    -2.4101139208
| 19>  H       -0.7609777823    -3.5902477007    -2.4524845942
| 20>  H        0.1180538958    -2.3134215201    -3.3264702566
| 21>  H        0.8463429431    -2.4157940935     3.0301388459
| 22>  H       -0.9104104539    -2.4420413127     2.9894046919
| 23>  H        0.0057464365    -3.7912231697     2.2637784075
| 24> *
| 25>
| 26>                          ****END OF INPUT****

CARTESIAN COORDINATES (ANGSTROEM)
---------------------------------
  C     -0.026668    1.506003    0.051394
  C     -0.000268    0.003117   -0.012246
  C      0.040449   -0.687748   -1.222786
  C      0.062296   -2.078326   -1.176655
  C      0.106349   -2.923253   -2.420175
  N      0.044742   -2.731444   -0.006007
  C      0.005610   -1.987974    1.103749
  C     -0.014184   -2.712902    2.422273
  N     -0.017713   -0.650210    1.154081
  H     -0.009746    1.956065   -0.943868
  H     -0.924424    1.844290    0.578337
  H      0.832556    1.873356    0.621356
  H      0.054588   -0.158449   -2.168753
  H      0.995945   -3.560985   -2.410114
  H     -0.760978   -3.590248   -2.452485
  H      0.118054   -2.313422   -3.326470
  H      0.846343   -2.415794    3.030139
  H     -0.910410   -2.442041    2.989405
  H      0.005746   -3.791223    2.263778

 Total Charge           Charge          ....    0
 Multiplicity           Mult            ....    1
 Number of Electrons    NEL             ....   66
 Basis Dimension        Dim             ....  339

ORBITAL ENERGIES
----------------

  NO   OCC          E(Eh)            E(eV)
   0   2.0000     -15.549461      -423.1223
   1   2.0000     -15.548661      -423.1006
   2   2.0000     -11.309114      -307.7366
   3   2.0000     -11.294479      -307.3384
   4   2.0000     -11.293954      -307.3241
   5   2.0000     -11.230004      -305.5839
   6   2.0000     -11.229894      -305.5810
   7   2.0000     -11.226440      -305.4870
   8   2.0000     -11.216391      -305.2135
   9   2.0000      -1.300835       -35.3975
  10   2.0000      -1.187426       -32.3115
  11   2.0000      -1.092290       -29.7227
  12   2.0000      -1.001621       -27.2555
  13   2.0000      -0.975958       -26.5572
  14   2.0000      -0.956347       -26.0235
  15   2.0000      -0.822718       -22.3873
  16   2.0000      -0.814342       -22.1594
  17   2.0000      -0.709109       -19.2958
  18   2.0000      -0.662424       -18.0255
  19   2.0000      -0.612781       -16.6746
  20   2.0000      -0.611831       -16.6488
  21   2.0000      -0.578530       -15.7426
  22   2.0000      -0.574941       -15.6449
  23   2.0000      -0.570082       -15.5127
  24   2.0000      -0.567784       -15.4502
  25   2.0000      -0.536991       -14.6123
  26   2.0000      -0.533299       -14.5118
  27   2.0000      -0.529843       -14.4178
  28   2.0000      -0.507893       -13.8205
  29   2.0000      -0.454507       -12.3678
  30   2.0000      -0.396944       -10.8014
  31   2.0000      -0.396260       -10.7828
  32   2.0000      -0.352962        -9.6046
  33   0.0000       0.104413         2.8412
  34   0.0000       0.127086         3.4582
  35   0.0000       0.139066         3.7842
  36   0.0000       0.156942         4.2706
  37   0.0000       0.161900         4.4055

MULLIKEN ATOMIC CHARGES
-----------------------
   0 C :   -0.426163
   1 C :    0.192205
   2 C :   -0.246511
   3 C :    0.204219
   4 C :   -0.425732
   5 N :   -0.261349
   6 C :    0.221969
   7 C :   -0.404579
   8 N :   -0.261696
   9 H :    0.132153
  10 H :    0.148174
  11 H :    0.148181
  12 H :    0.131195
  13 H :    0.148054
  14 H :    0.148058
  15 H :    0.132008
  16 H :    0.137666
  17 H :    0.137711
  18 H :    0.144438
Sum of atomic charges:   -0.0000000

LOEWDIN ATOMIC CHARGES
----------------------
   0 C :   -0.263585
   1 C :   -0.236520
   2 C :   -0.108130
   3 C :   -0.235687
   4 C :   -0.263772
   5 N :    0.171818
   6 C :   -0.318488
   7 C :   -0.270541
   8 N :    0.174508
   9 H :    0.126210
  10 H :    0.137037
  11 H :    0.137035
  12 H :    0.152339
  13 H :    0.137037
  14 H :    0.137036
  15 H :    0.126259
  16 H :    0.133880
  17 H :    0.133861
  18 H :    0.129701

  Mayer bond orders larger than 0.1
B(  0-C ,  1-C ) :   0.8870 B(  0-C ,  9-H ) :   0.9565 B(  0-C , 10-H ) :   0.9277
B(  0-C , 11-H ) :   0.9277 B(  1-C ,  2-C ) :   1.3343 B(  1-C ,  8-N ) :   1.3749
B(  2-C ,  3-C ) :   1.3486 B(  2-C , 12-H ) :   0.9002 B(  3-C ,  4-C ) :   0.8869
B(  3-C ,  5-N ) :   1.3275 B(  4-C , 13-H ) :   0.9279 B(  4-C , 14-H ) :   0.9279
B(  4-C , 15-H ) :   0.9563 B(  5-N ,  6-C ) :   1.4585 B(  6-C ,  7-C ) :   0.8911
B(  6-C ,  8-N ) :   1.3692 B(  7-C , 16-H ) :   0.9271 B(  7-C , 17-H ) :   0.9272
B(  7-C , 18-H ) :   0.9541

MP2 TOTAL ENERGY:     -381.462223428 Eh
FINAL SINGLE POINT ENERGY      -381.462223428345

DIPOLE MOMENT
-------------
                                X             Y             Z
Electronic contribution:     -0.01363      -0.57412       0.93807
Nuclear contribution   :      0.02392       0.98090      -1.63693
                        -----------------------------------------
Total Dipole Moment    :      0.01028       0.40678      -0.69886
                        -----------------------------------------
Magnitude (a.u.)       :      0.80869
Magnitude (Debye)      :      2.05553

                             ****ORCA TERMINATED NORMALLY****
TOTAL RUN TIME: 0 days 0 hours 18 minutes 9 seconds 801 msec
