                         Program Version 3.0.3 - RELEASE   -
|  1> ! RI-MP2 RIJK def2-TZVP def2-TZVP/C def2-TZVP/JK TIGHTSCF
|  2> % maxcore 2000
|  3> % mp2 density relaxed end
|  4> *xyz 0 1
|  5>  C        0.2389080547     1.5395428729     0.0841357483
|  6>  C        0.0840008755     0.0370966331    -0.0743830118
|  7>  C        0.9778546336    -0.5723271431    -1.1492286980
|  8>  C        0.8651763841    -2.0970977653    -1.0903857998
|  9>  C        1.9067819394    -2.8035674778    -1.9524064900
| 10>  O        2.5026718880    -2.2812195596    -2.8576724244
| 11>  N        0.9610430496    -2.6385470418     0.2609652206
| 12>  C        0.7507751025    -1.8487168926     1.2278428217
| 13>  O        0.3843752500    -0.5507919720     1.2161948792
| 14>  H        1.2784712797     1.7972370248     0.3072932071
| 15>  H       -0.0551042143     2.0466897313    -0.8395171009
| 16>  H       -0.3911898985     1.9066153191     0.8985042092
| 17>  H       -0.9657635180    -0.2055398772    -0.2914163356
| 18>  H        0.6989992695    -0.1938338194    -2.1358874444
| 19>  H        2.0183210613    -0.2768302608    -0.9742329762
| 20>  H       -0.1039021577    -2.4171110525    -1.5127835928
| 21>  H        2.0638969494    -3.8663563571    -1.6688568779
| 22>  H        0.8636600214    -2.1931725120     2.2545003457
| 23> *
| 24>
| 25>                          ****END OF INPUT****

CARTESIAN COORDINATES (ANGSTROEM)
---------------------------------
  C      0.238908    1.539543    0.084136
  C      0.084001    0.037097   -0.074383
  C      0.977855   -0.572327   -1.149229
  C      0.865176   -2.097098   -1.090386
  C      1.906782   -2.803567   -1.952406
  O      2.502672   -2.281220   -2.857672
  N      0.961043   -2.638547    0.260965
  C      0.750775   -1.848717    1.227843
  O      0.384375   -0.550792    1.216195
  H      1.278471    1.797237    0.307293
  H     -0.055104    2.046690   -0.839517
  H     -0.391190    1.906615    0.898504
  H     -0.965764   -0.205540   -0.291416
  H      0.698999   -0.193834   -2.135887
  H      2.018321   -0.276830   -0.974233
  H     -0.103902   -2.417111   -1.512784
  H      2.063897   -3.866356   -1.668857
  H      0.863660   -2.193173    2.254500

 Total Charge           Charge          ....    0
 Multiplicity           Mult            ....    1
 Number of Electrons    NEL             ....   68
 Basis Dimension        Dim             ....  333

ORBITAL ENERGIES
----------------

  NO   OCC          E(Eh)            E(eV)
   0   2.0000     -20.603522      -560.6503
   1   2.0000     -20.559178      -559.4437
   2   2.0000     -15.557173      -423.3322
   3   2.0000     -11.344943      -308.7116
   4   2.0000     -11.330491      -308.3183
   5   2.0000     -11.307969      -307.7055
   6   2.0000     -11.280580      -306.9602
   7   2.0000     -11.241346      -305.8926
   8   2.0000     -11.232456      -305.6507
   9   2.0000      -1.437347       -39.1122
  10   2.0000      -1.399158       -38.0730
  11   2.0000      -1.233622       -33.5686
  12   2.0000      -1.101366       -29.9697
  13   2.0000      -1.010301       -27.4917
  14   2.0000      -0.936397       -25.4807
  15   2.0000      -0.880523       -23.9602
  16   2.0000      -0.801231       -21.8026
  17   2.0000      -0.757735       -20.6190
  18   2.0000      -0.718022       -19.5384
  19   2.0000      -0.687144       -18.6981
  20   2.0000      -0.659920       -17.9573
  21   2.0000      -0.654926       -17.8215
  22   2.0000      -0.629169       -17.1206
  23   2.0000      -0.614729       -16.7276
  24   2.0000      -0.589391       -16.0382
  25   2.0000      -0.559874       -15.2349
  26   2.0000      -0.549998       -14.9662
  27   2.0000      -0.540746       -14.7145
  28   2.0000      -0.521373       -14.1873
  29   2.0000      -0.496860       -13.5203
  30   2.0000      -0.489770       -13.3273
  31   2.0000      -0.437380       -11.9017
  32   2.0000      -0.420020       -11.4293
  33   2.0000      -0.392689       -10.6856
  34   0.0000       0.112410         3.0588
  35   0.0000       0.140971         3.8360
  36   0.0000       0.148450         4.0395
  37   0.0000       0.172589         4.6964
  38   0.0000       0.179463         4.8834

MULLIKEN ATOMIC CHARGES
-----------------------
   0 C :   -0.372797
   1 C :    0.083442
   2 C :   -0.310769
   3 C :    0.101112
   4 C :    0.077433
   5 O :   -0.267082
   6 N :   -0.302852
   7 C :    0.089222
   8 O :   -0.249958
   9 H :    0.134332
  10 H :    0.130902
  11 H :    0.147114
  12 H :    0.097674
  13 H :    0.143294
  14 H :    0.137608
  15 H :    0.116889
  16 H :    0.102304
  17 H :    0.142133
Sum of atomic charges:   -0.0000000

LOEWDIN ATOMIC CHARGES
----------------------
   0 C :   -0.286138
   1 C :   -0.304670
   2 C :   -0.220714
   3 C :   -0.298054
   4 C :   -0.265578
   5 O :    0.138906
   6 N :    0.085423
   7 C :   -0.355229
   8 O :    0.244681
   9 H :    0.129251
  10 H :    0.130690
  11 H :    0.129639
  12 H :    0.145406
  13 H :    0.153137
  14 H :    0.153141
  15 H :    0.165974
  16 H :    0.118414
  17 H :    0.135720

  Mayer bond orders larger than 0.1
B(  0-C ,  1-C ) :   0.9269 B(  0-C ,  9-H ) :   0.9322 B(  0-C , 10-H ) :   0.9306
B(  0-C , 11-H ) :   0.9383 B(  1-C ,  2-C ) :   0.9129 B(  1-C ,  8-O ) :   0.8562
B(  1-C , 12-H ) :   0.9382 B(  2-C ,  3-C ) :   0.9126 B(  2-C , 13-H ) :   0.9165
B(  2-C , 14-H ) :   0.9180 B(  3-C ,  4-C ) :   0.8656 B(  3-C ,  6-N ) :   0.8805
B(  3-C , 15-H ) :   0.8861 B(  4-C ,  5-O ) :   2.0038 B(  4-C , 16-H ) :   0.9458
B(  6-N ,  7-C ) :   1.8285 B(  7-C ,  8-O ) :   1.0938 B(  7-C , 17-H ) :   0.9241

MP2 TOTAL ENERGY:     -438.388026516 Eh
FINAL SINGLE POINT ENERGY      -438.388026515592

DIPOLE MOMENT
-------------
                                X             Y             Z
Electronic contribution:      2.27953      -6.45336      -0.11489
Nuclear contribution   :     -3.08378       7.06804       0.40003
                        -----------------------------------------
Total Dipole Moment    :     -0.80424       0.61468       0.28514
                        -----------------------------------------
Magnitude (a.u.)       :      1.05164
Magnitude (Debye)      :      2.67306

                             ****ORCA TERMINATED NORMALLY****
TOTAL RUN TIME: 0 days 0 hours 17 minutes 0 seconds 967 msec
