                         Program Version 3.0.3 - RELEASE   -
|  1> ! RI-MP2 RIJK def2-TZVP def2-TZVP/C def2-TZVP/JK TIGHTSCF
|  2> % maxcore 2000
|  3> % mp2 density relaxed end
|  4> *xyz 0 1
|  5>  C        0.0483073781     1.5638894690    -0.0454222843
|  6>  C        0.0392495683     0.0371648377    -0.1803555436
|  7>  C       -1.3427805447    -0.5772093723     0.0135621971
|  8>  C       -1.5203036833    -2.0963787132    -0.1132802057
|  9>  C       -0.8490316883    -2.8325584300     1.0124472904
| 10>  C       -2.1746000490    -2.1770333304     1.2651844264
| 11>  C       -1.9970247999    -0.6597557698     1.4628154138
| 12>  C       -1.1979612380    -0.2390163907     2.6064001760
| 13>  N       -0.5431178805     0.0866591631     3.5028658448
| 14>  H        1.0503652173     1.9665525366    -0.2197428395
| 15>  H       -0.6290088409     2.0293905316    -0.7705193658
| 16>  H       -0.2622062418     1.8771158696     0.9560347751
| 17>  H        0.3943385219    -0.2487736863    -1.1791169000
| 18>  H        0.7479892124    -0.3988613411     0.5325032073
| 19>  H       -2.0590511576    -0.0628165395    -0.6351517068
| 20>  H       -1.8143829276    -2.6010857382    -1.0254124099
| 21>  H       -0.8857409613    -3.9142474407     0.9366282523
| 22>  H        0.0532574543    -2.4541012394     1.4844518352
| 23>  H       -3.0494815243    -2.7272264282     1.5860610005
| 24>  H       -2.9504651851    -0.1279929176     1.4885964666
| 25> *
| 26>
| 27>                          ****END OF INPUT****

CARTESIAN COORDINATES (ANGSTROEM)
---------------------------------
  C      0.048307    1.563889   -0.045422
  C      0.039250    0.037165   -0.180356
  C     -1.342781   -0.577209    0.013562
  C     -1.520304   -2.096379   -0.113280
  C     -0.849032   -2.832558    1.012447
  C     -2.174600   -2.177033    1.265184
  C     -1.997025   -0.659756    1.462815
  C     -1.197961   -0.239016    2.606400
  N     -0.543118    0.086659    3.502866
  H      1.050365    1.966553   -0.219743
  H     -0.629009    2.029391   -0.770519
  H     -0.262206    1.877116    0.956035
  H      0.394339   -0.248774   -1.179117
  H      0.747989   -0.398861    0.532503
  H     -2.059051   -0.062817   -0.635152
  H     -1.814383   -2.601086   -1.025412
  H     -0.885741   -3.914247    0.936628
  H      0.053257   -2.454101    1.484452
  H     -3.049482   -2.727226    1.586061
  H     -2.950465   -0.127993    1.488596

 Total Charge           Charge          ....    0
 Multiplicity           Mult            ....    1
 Number of Electrons    NEL             ....   66
 Basis Dimension        Dim             ....  345

ORBITAL ENERGIES
----------------

  NO   OCC          E(Eh)            E(eV)
   0   2.0000     -15.562966      -423.4898
   1   2.0000     -11.282779      -307.0200
   2   2.0000     -11.266295      -306.5715
   3   2.0000     -11.258573      -306.3613
   4   2.0000     -11.256714      -306.3108
   5   2.0000     -11.249785      -306.1222
   6   2.0000     -11.242431      -305.9221
   7   2.0000     -11.228912      -305.5542
   8   2.0000     -11.217120      -305.2333
   9   2.0000      -1.225965       -33.3602
  10   2.0000      -1.200435       -32.6655
  11   2.0000      -1.062774       -28.9196
  12   2.0000      -1.009834       -27.4790
  13   2.0000      -0.934209       -25.4211
  14   2.0000      -0.851187       -23.1620
  15   2.0000      -0.812235       -22.1020
  16   2.0000      -0.763000       -20.7623
  17   2.0000      -0.720175       -19.5970
  18   2.0000      -0.670328       -18.2406
  19   2.0000      -0.635566       -17.2946
  20   2.0000      -0.623769       -16.9736
  21   2.0000      -0.577974       -15.7275
  22   2.0000      -0.561256       -15.2725
  23   2.0000      -0.554037       -15.0761
  24   2.0000      -0.547290       -14.8925
  25   2.0000      -0.524838       -14.2816
  26   2.0000      -0.501745       -13.6532
  27   2.0000      -0.490587       -13.3496
  28   2.0000      -0.483309       -13.1515
  29   2.0000      -0.451492       -12.2857
  30   2.0000      -0.432534       -11.7698
  31   2.0000      -0.426871       -11.6157
  32   2.0000      -0.400312       -10.8931
  33   0.0000       0.126577         3.4443
  34   0.0000       0.146137         3.9766
  35   0.0000       0.150286         4.0895
  36   0.0000       0.158226         4.3056
  37   0.0000       0.179175         4.8756

MULLIKEN ATOMIC CHARGES
-----------------------
   0 C :   -0.406657
   1 C :   -0.195744
   2 C :   -0.088858
   3 C :   -0.091029
   4 C :   -0.291947
   5 C :   -0.108821
   6 C :    0.012089
   7 C :   -0.243491
   8 N :   -0.050017
   9 H :    0.137614
  10 H :    0.120400
  11 H :    0.148403
  12 H :    0.118233
  13 H :    0.114428
  14 H :    0.107433
  15 H :    0.136097
  16 H :    0.138466
  17 H :    0.153753
  18 H :    0.142291
  19 H :    0.147357
Sum of atomic charges:   -0.0000000

LOEWDIN ATOMIC CHARGES
----------------------
   0 C :   -0.312688
   1 C :   -0.270042
   2 C :   -0.171587
   3 C :   -0.157561
   4 C :   -0.194933
   5 C :   -0.146611
   6 C :   -0.171492
   7 C :   -0.176300
   8 N :    0.057781
   9 H :    0.123992
  10 H :    0.119781
  11 H :    0.126526
  12 H :    0.142630
  13 H :    0.142167
  14 H :    0.157400
  15 H :    0.137574
  16 H :    0.143865
  17 H :    0.137144
  18 H :    0.138767
  19 H :    0.173586

  Mayer bond orders larger than 0.1
B(  0-C ,  1-C ) :   0.9182 B(  0-C ,  9-H ) :   0.9396 B(  0-C , 10-H ) :   0.9362
B(  0-C , 11-H ) :   0.9361 B(  1-C ,  2-C ) :   0.9262 B(  1-C , 12-H ) :   0.9331
B(  1-C , 13-H ) :   0.9220 B(  2-C ,  3-C ) :   0.9301 B(  2-C ,  6-C ) :   0.9562
B(  2-C , 14-H ) :   0.9237 B(  3-C ,  4-C ) :   0.8736 B(  3-C ,  5-C ) :   0.8280
B(  3-C , 15-H ) :   0.9262 B(  4-C ,  5-C ) :   0.8910 B(  4-C , 16-H ) :   0.9306
B(  4-C , 17-H ) :   0.9189 B(  5-C ,  6-C ) :   0.8945 B(  5-C , 18-H ) :   0.9240
B(  6-C ,  7-C ) :   0.9456 B(  6-C , 19-H ) :   0.9036 B(  7-C ,  8-N ) :   2.8562

MP2 TOTAL ENERGY:     -365.340251073 Eh
FINAL SINGLE POINT ENERGY      -365.340251072933

DIPOLE MOMENT
-------------
                                X             Y             Z
Electronic contribution:     -2.54918      -1.88743       6.27930
Nuclear contribution   :      1.83457       1.36333      -7.63514
                        -----------------------------------------
Total Dipole Moment    :     -0.71460      -0.52410      -1.35584
                        -----------------------------------------
Magnitude (a.u.)       :      1.61977
Magnitude (Debye)      :      4.11712

                             ****ORCA TERMINATED NORMALLY****
TOTAL RUN TIME: 0 days 0 hours 31 minutes 35 seconds 765 msec
