                         Program Version 3.0.3 - RELEASE   -
|  1> ! RI-MP2 RIJK def2-TZVP def2-TZVP/C def2-TZVP/JK TIGHTSCF
|  2> % maxcore 2000
|  3> % mp2 density relaxed end
|  4> *xyz 0 1
|  5>  C        0.0472018194     1.6435544387    -0.0822131408
|  6>  C        0.1118281240     0.1234981483     0.0188090598
|  7>  C        1.1077364213    -0.7068330272    -0.8436949539
|  8>  C        2.5127902668    -0.1748113366    -0.4660424779
|  9>  C        2.2544426144    -0.7570315451     0.9261877594
| 10>  C        3.2919149437    -0.9849663529     1.9866462897
| 11>  C        1.2238342643    -1.7200088061     0.3654219523
| 12>  C        0.7453790754    -0.5727645839     1.2313609990
| 13>  C        0.1717487193    -0.6057280751     2.6187435571
| 14>  H        1.0180756050     2.1125899239     0.1011064198
| 15>  H       -0.2966224456     1.9579700643    -1.0745077535
| 16>  H       -0.6571153283     2.0508250883     0.6520769075
| 17>  H       -0.8938158625    -0.2949133113    -0.1199029859
| 18>  H        0.8670557606    -0.9602587549    -1.8747241498
| 19>  H        3.3000881877    -0.7424733635    -0.9732546140
| 20>  H        2.7154013926     0.8967741479    -0.5787680050
| 21>  H        3.6474017264    -0.0365542585     2.4080136136
| 22>  H        2.9092508454    -1.5892882354     2.8146801889
| 23>  H        4.1619880137    -1.5092062098     1.5744554767
| 24>  H        1.1071329436    -2.7910747090     0.4578879825
| 25>  H        0.2438221067     0.3736185101     3.1073979440
| 26>  H       -0.8881846844    -0.8851265059     2.5942593705
| 27>  H        0.6841949005    -1.3298303161     3.2594172199
| 28> *
| 29>
| 30>                          ****END OF INPUT****

CARTESIAN COORDINATES (ANGSTROEM)
---------------------------------
  C      0.047202    1.643554   -0.082213
  C      0.111828    0.123498    0.018809
  C      1.107736   -0.706833   -0.843695
  C      2.512790   -0.174811   -0.466042
  C      2.254443   -0.757032    0.926188
  C      3.291915   -0.984966    1.986646
  C      1.223834   -1.720009    0.365422
  C      0.745379   -0.572765    1.231361
  C      0.171749   -0.605728    2.618744
  H      1.018076    2.112590    0.101106
  H     -0.296622    1.957970   -1.074508
  H     -0.657115    2.050825    0.652077
  H     -0.893816   -0.294913   -0.119903
  H      0.867056   -0.960259   -1.874724
  H      3.300088   -0.742473   -0.973255
  H      2.715401    0.896774   -0.578768
  H      3.647402   -0.036554    2.408014
  H      2.909251   -1.589288    2.814680
  H      4.161988   -1.509206    1.574455
  H      1.107133   -2.791075    0.457888
  H      0.243822    0.373619    3.107398
  H     -0.888185   -0.885127    2.594259
  H      0.684195   -1.329830    3.259417

 Total Charge           Charge          ....    0
 Multiplicity           Mult            ....    1
 Number of Electrons    NEL             ....   68
 Basis Dimension        Dim             ....  363

ORBITAL ENERGIES
----------------

  NO   OCC          E(Eh)            E(eV)
   0   2.0000     -11.230207      -305.5895
   1   2.0000     -11.228021      -305.5300
   2   2.0000     -11.227444      -305.5143
   3   2.0000     -11.221298      -305.3470
   4   2.0000     -11.217787      -305.2515
   5   2.0000     -11.214963      -305.1747
   6   2.0000     -11.214719      -305.1680
   7   2.0000     -11.214121      -305.1518
   8   2.0000     -11.205329      -304.9125
   9   2.0000      -1.223469       -33.2923
  10   2.0000      -1.023612       -27.8539
  11   2.0000      -1.003667       -27.3112
  12   2.0000      -0.967357       -26.3231
  13   2.0000      -0.917727       -24.9726
  14   2.0000      -0.870521       -23.6881
  15   2.0000      -0.807689       -21.9783
  16   2.0000      -0.715714       -19.4756
  17   2.0000      -0.683001       -18.5854
  18   2.0000      -0.653145       -17.7730
  19   2.0000      -0.615984       -16.7618
  20   2.0000      -0.599160       -16.3040
  21   2.0000      -0.579821       -15.7777
  22   2.0000      -0.564323       -15.3560
  23   2.0000      -0.548320       -14.9206
  24   2.0000      -0.544261       -14.8101
  25   2.0000      -0.536143       -14.5892
  26   2.0000      -0.527373       -14.3506
  27   2.0000      -0.515846       -14.0369
  28   2.0000      -0.485730       -13.2174
  29   2.0000      -0.453918       -12.3517
  30   2.0000      -0.426261       -11.5992
  31   2.0000      -0.419325       -11.4104
  32   2.0000      -0.362538        -9.8652
  33   2.0000      -0.350314        -9.5325
  34   0.0000       0.134092         3.6488
  35   0.0000       0.155188         4.2229
  36   0.0000       0.165191         4.4951
  37   0.0000       0.173594         4.7237
  38   0.0000       0.192991         5.2516

MULLIKEN ATOMIC CHARGES
-----------------------
   0 C :   -0.438193
   1 C :    0.002166
   2 C :   -0.051312
   3 C :   -0.215567
   4 C :    0.001344
   5 C :   -0.418658
   6 C :   -0.203932
   7 C :   -0.005262
   8 C :   -0.420160
   9 H :    0.127503
  10 H :    0.130377
  11 H :    0.130320
  12 H :    0.089009
  13 H :    0.129410
  14 H :    0.105843
  15 H :    0.104699
  16 H :    0.134115
  17 H :    0.126837
  18 H :    0.133061
  19 H :    0.139542
  20 H :    0.136734
  21 H :    0.133455
  22 H :    0.128671
Sum of atomic charges:   -0.0000000

LOEWDIN ATOMIC CHARGES
----------------------
   0 C :   -0.296077
   1 C :   -0.200049
   2 C :   -0.138866
   3 C :   -0.178681
   4 C :   -0.192411
   5 C :   -0.273599
   6 C :   -0.091570
   7 C :   -0.176161
   8 C :   -0.272150
   9 H :    0.122352
  10 H :    0.124786
  11 H :    0.124530
  12 H :    0.155517
  13 H :    0.128805
  14 H :    0.139141
  15 H :    0.120782
  16 H :    0.129001
  17 H :    0.127591
  18 H :    0.128082
  19 H :    0.133048
  20 H :    0.129197
  21 H :    0.128702
  22 H :    0.128029

  Mayer bond orders larger than 0.1
B(  0-C ,  1-C ) :   0.8821 B(  0-C ,  9-H ) :   0.9427 B(  0-C , 10-H ) :   0.9356
B(  0-C , 11-H ) :   0.9373 B(  1-C ,  2-C ) :   0.9283 B(  1-C ,  7-C ) :   0.9255
B(  1-C , 12-H ) :   0.9185 B(  2-C ,  3-C ) :   0.9049 B(  2-C ,  6-C ) :   0.9321
B(  2-C , 13-H ) :   0.9137 B(  3-C ,  4-C ) :   0.9409 B(  3-C , 14-H ) :   0.9179
B(  3-C , 15-H ) :   0.9219 B(  4-C ,  5-C ) :   0.8800 B(  4-C ,  6-C ) :   0.8442
B(  4-C ,  7-C ) :   0.8398 B(  5-C , 16-H ) :   0.9424 B(  5-C , 17-H ) :   0.9412
B(  5-C , 18-H ) :   0.9387 B(  6-C ,  7-C ) :   0.8355 B(  6-C , 19-H ) :   0.9044
B(  7-C ,  8-C ) :   0.8746 B(  8-C , 20-H ) :   0.9413 B(  8-C , 21-H ) :   0.9390
B(  8-C , 22-H ) :   0.9407

MP2 TOTAL ENERGY:     -350.471663697 Eh
FINAL SINGLE POINT ENERGY      -350.471663696963

DIPOLE MOMENT
-------------
                                X             Y             Z
Electronic contribution:     -0.08574      -2.63277      -2.72399
Nuclear contribution   :      0.06747       2.56779       2.81779
                        -----------------------------------------
Total Dipole Moment    :     -0.01827      -0.06498       0.09381
                        -----------------------------------------
Magnitude (a.u.)       :      0.11557
Magnitude (Debye)      :      0.29375

                             ****ORCA TERMINATED NORMALLY****
TOTAL RUN TIME: 0 days 0 hours 22 minutes 35 seconds 733 msec
