                         Program Version 3.0.3 - RELEASE   -
|  1> ! RI-MP2 RIJK def2-TZVP def2-TZVP/C def2-TZVP/JK TIGHTSCF
|  2> % maxcore 2000
|  3> % mp2 density relaxed end
|  4> *xyz 0 1
|  5>  C       -0.0670017930     1.5626812436     0.0944947772
|  6>  C        1.4851973487     1.6561322075     0.0386717371
|  7>  C        1.5604433959     0.1084998997     0.2378039628
|  8>  C        0.0134085757     0.0095539669     0.0444792951
|  9>  C       -0.5218972152    -0.6481970284    -1.2345120664
| 10>  C        0.2881585574    -0.5228643911    -2.5391012699
| 11>  C        0.6876918062     0.8769831661    -3.0575957367
| 12>  C        2.0359271807     1.4324701236    -2.5459985932
| 13>  C        2.0745181463     2.2565650935    -1.2447564322
| 14>  H       -0.4866388925     1.9410753031     1.0307755017
| 15>  H       -0.6045896996     2.0402959072    -0.7294716020
| 16>  H        1.9018541609     2.2137649641     0.8830027139
| 17>  H        2.1784417669    -0.4463995769    -0.4721201630
| 18>  H        1.8794856453    -0.1731247617     1.2444832455
| 19>  H       -0.4912031352    -0.4634919059     0.8924453963
| 20>  H       -0.6511379558    -1.7229658702    -1.0494872058
| 21>  H       -1.5342950986    -0.2550896441    -1.4062220503
| 22>  H        1.1996149856    -1.1300026164    -2.4604628624
| 23>  H       -0.3128863402    -1.0120167081    -3.3156468885
| 24>  H        0.7771058793     0.7932175606    -4.1471910416
| 25>  H       -0.1201079715     1.5996305095    -2.8878155378
| 26>  H        2.7413976651     0.5948824509    -2.4665499731
| 27>  H        2.4521168825     2.0813630636    -3.3265574071
| 28>  H        1.5701338393     3.2180157179    -1.4184703056
| 29>  H        3.1287529759     2.5058164350    -1.0644009740
| 30> *
| 31>
| 32>                          ****END OF INPUT****

CARTESIAN COORDINATES (ANGSTROEM)
---------------------------------
  C     -0.067002    1.562681    0.094495
  C      1.485197    1.656132    0.038672
  C      1.560443    0.108500    0.237804
  C      0.013409    0.009554    0.044479
  C     -0.521897   -0.648197   -1.234512
  C      0.288159   -0.522864   -2.539101
  C      0.687692    0.876983   -3.057596
  C      2.035927    1.432470   -2.545999
  C      2.074518    2.256565   -1.244756
  H     -0.486639    1.941075    1.030776
  H     -0.604590    2.040296   -0.729472
  H      1.901854    2.213765    0.883003
  H      2.178442   -0.446400   -0.472120
  H      1.879486   -0.173125    1.244483
  H     -0.491203   -0.463492    0.892445
  H     -0.651138   -1.722966   -1.049487
  H     -1.534295   -0.255090   -1.406222
  H      1.199615   -1.130003   -2.460463
  H     -0.312886   -1.012017   -3.315647
  H      0.777106    0.793218   -4.147191
  H     -0.120108    1.599631   -2.887816
  H      2.741398    0.594882   -2.466550
  H      2.452117    2.081363   -3.326557
  H      1.570134    3.218016   -1.418470
  H      3.128753    2.505816   -1.064401

 Total Charge           Charge          ....    0
 Multiplicity           Mult            ....    1
 Number of Electrons    NEL             ....   70
 Basis Dimension        Dim             ....  375

ORBITAL ENERGIES
----------------

  NO   OCC          E(Eh)            E(eV)
   0   2.0000     -11.216486      -305.2161
   1   2.0000     -11.216458      -305.2153
   2   2.0000     -11.214141      -305.1523
   3   2.0000     -11.213586      -305.1372
   4   2.0000     -11.213317      -305.1299
   5   2.0000     -11.212486      -305.1073
   6   2.0000     -11.212474      -305.1069
   7   2.0000     -11.208907      -305.0099
   8   2.0000     -11.205659      -304.9215
   9   2.0000      -1.131145       -30.7800
  10   2.0000      -1.055605       -28.7245
  11   2.0000      -1.032608       -28.0987
  12   2.0000      -0.921933       -25.0871
  13   2.0000      -0.899610       -24.4796
  14   2.0000      -0.893162       -24.3042
  15   2.0000      -0.778896       -21.1948
  16   2.0000      -0.760490       -20.6940
  17   2.0000      -0.705388       -19.1946
  18   2.0000      -0.664490       -18.0817
  19   2.0000      -0.631474       -17.1833
  20   2.0000      -0.607500       -16.5309
  21   2.0000      -0.585628       -15.9357
  22   2.0000      -0.570614       -15.5272
  23   2.0000      -0.562735       -15.3128
  24   2.0000      -0.544365       -14.8129
  25   2.0000      -0.522105       -14.2072
  26   2.0000      -0.509930       -13.8759
  27   2.0000      -0.487437       -13.2638
  28   2.0000      -0.470641       -12.8068
  29   2.0000      -0.456461       -12.4209
  30   2.0000      -0.452421       -12.3110
  31   2.0000      -0.435910       -11.8617
  32   2.0000      -0.416261       -11.3270
  33   2.0000      -0.412732       -11.2310
  34   2.0000      -0.396227       -10.7819
  35   0.0000       0.134173         3.6510
  36   0.0000       0.150410         4.0929
  37   0.0000       0.158821         4.3217
  38   0.0000       0.163898         4.4599
  39   0.0000       0.182905         4.9771

MULLIKEN ATOMIC CHARGES
-----------------------
   0 C :   -0.299211
   1 C :    0.022064
   2 C :   -0.288403
   3 C :    0.022064
   4 C :   -0.276029
   5 C :   -0.244438
   6 C :   -0.208885
   7 C :   -0.244438
   8 C :   -0.276029
   9 H :    0.114301
  10 H :    0.110915
  11 H :    0.093428
  12 H :    0.115280
  13 H :    0.116665
  14 H :    0.093428
  15 H :    0.115285
  16 H :    0.110142
  17 H :    0.111882
  18 H :    0.122086
  19 H :    0.120106
  20 H :    0.110393
  21 H :    0.111882
  22 H :    0.122086
  23 H :    0.110142
  24 H :    0.115285
Sum of atomic charges:   -0.0000000

LOEWDIN ATOMIC CHARGES
----------------------
   0 C :   -0.201998
   1 C :   -0.227756
   2 C :   -0.195603
   3 C :   -0.227756
   4 C :   -0.257298
   5 C :   -0.271561
   6 C :   -0.267003
   7 C :   -0.271561
   8 C :   -0.257298
   9 H :    0.129297
  10 H :    0.125817
  11 H :    0.141137
  12 H :    0.126754
  13 H :    0.129967
  14 H :    0.141137
  15 H :    0.140140
  16 H :    0.140620
  17 H :    0.135417
  18 H :    0.139134
  19 H :    0.138890
  20 H :    0.134210
  21 H :    0.135417
  22 H :    0.139134
  23 H :    0.140620
  24 H :    0.140140

  Mayer bond orders larger than 0.1
B(  0-C ,  1-C ) :   0.9011 B(  0-C ,  3-C ) :   0.9011 B(  0-C ,  9-H ) :   0.9162
B(  0-C , 10-H ) :   0.9366 B(  1-C ,  2-C ) :   0.9087 B(  1-C ,  8-C ) :   0.9002
B(  1-C , 11-H ) :   0.9246 B(  2-C ,  3-C ) :   0.9087 B(  2-C , 12-H ) :   0.9311
B(  2-C , 13-H ) :   0.9184 B(  3-C ,  4-C ) :   0.9002 B(  3-C , 14-H ) :   0.9246
B(  4-C ,  5-C ) :   0.9334 B(  4-C , 15-H ) :   0.9337 B(  4-C , 16-H ) :   0.9373
B(  5-C ,  6-C ) :   0.9050 B(  5-C , 17-H ) :   0.9370 B(  5-C , 18-H ) :   0.9359
B(  6-C ,  7-C ) :   0.9050 B(  6-C , 19-H ) :   0.9367 B(  6-C , 20-H ) :   0.9328
B(  7-C ,  8-C ) :   0.9334 B(  7-C , 21-H ) :   0.9370 B(  7-C , 22-H ) :   0.9359
B(  8-C , 23-H ) :   0.9373 B(  8-C , 24-H ) :   0.9337

MP2 TOTAL ENERGY:     -351.708635765 Eh
FINAL SINGLE POINT ENERGY      -351.708635765299

DIPOLE MOMENT
-------------
                                X             Y             Z
Electronic contribution:     -0.14882       0.14029       2.06160
Nuclear contribution   :      0.15867      -0.14917      -2.08076
                        -----------------------------------------
Total Dipole Moment    :      0.00986      -0.00888      -0.01916
                        -----------------------------------------
Magnitude (a.u.)       :      0.02330
Magnitude (Debye)      :      0.05923

                             ****ORCA TERMINATED NORMALLY****
TOTAL RUN TIME: 0 days 0 hours 22 minutes 25 seconds 911 msec
