                         Program Version 3.0.3 - RELEASE   -
|  1> ! RI-MP2 RIJK def2-TZVP def2-TZVP/C def2-TZVP/JK TIGHTSCF
|  2> % maxcore 2000
|  3> % mp2 density relaxed end
|  4> *xyz 0 1
|  5>  O       -0.2150291819     0.0766869239     0.3045799865
|  6>  C       -0.0203510443     1.2053326942    -0.0730948382
|  7>  C        1.2882854886     1.9051012157    -0.0455703873
|  8>  C        1.1853338907     3.4165248901     0.2063849339
|  9>  C        1.5407170026     2.9268877474    -1.1571394404
| 10>  C        2.9751412482     3.0446186520    -1.6744970283
| 11>  C        3.7582757617     1.7204473535    -1.6006063717
| 12>  C        3.5811645720     1.0354013797    -0.2670481233
| 13>  C        2.4577663064     1.1317832130     0.4429868471
| 14>  H       -0.8539211762     1.8301766406    -0.4763848554
| 15>  H        0.1955916430     3.8286949271     0.3768662770
| 16>  H        1.9714316524     3.8459954521     0.8175642184
| 17>  H        0.7596452676     2.9974948207    -1.9088227677
| 18>  H        2.9606677253     3.4147790871    -2.7044710482
| 19>  H        3.5103010059     3.7954886093    -1.0830005473
| 20>  H        3.4302799829     1.0428465353    -2.4023535470
| 21>  H        4.8195348718     1.9135030445    -1.7910005871
| 22>  H        4.4046018914     0.4318568787     0.1048992792
| 23>  H        2.3403588418     0.6061078750     1.3853734497
| 24> *
| 25>
| 26>                          ****END OF INPUT****

CARTESIAN COORDINATES (ANGSTROEM)
---------------------------------
  O     -0.215029    0.076687    0.304580
  C     -0.020351    1.205333   -0.073095
  C      1.288285    1.905101   -0.045570
  C      1.185334    3.416525    0.206385
  C      1.540717    2.926888   -1.157139
  C      2.975141    3.044619   -1.674497
  C      3.758276    1.720447   -1.600606
  C      3.581165    1.035401   -0.267048
  C      2.457766    1.131783    0.442987
  H     -0.853921    1.830177   -0.476385
  H      0.195592    3.828695    0.376866
  H      1.971432    3.845995    0.817564
  H      0.759645    2.997495   -1.908823
  H      2.960668    3.414779   -2.704471
  H      3.510301    3.795489   -1.083001
  H      3.430280    1.042847   -2.402354
  H      4.819535    1.913503   -1.791001
  H      4.404602    0.431857    0.104899
  H      2.340359    0.606108    1.385373

 Total Charge           Charge          ....    0
 Multiplicity           Mult            ....    1
 Number of Electrons    NEL             ....   66
 Basis Dimension        Dim             ....  339

ORBITAL ENERGIES
----------------

  NO   OCC          E(Eh)            E(eV)
   0   2.0000     -20.547546      -559.1271
   1   2.0000     -11.328681      -308.2691
   2   2.0000     -11.254711      -306.2562
   3   2.0000     -11.253466      -306.2224
   4   2.0000     -11.249323      -306.1096
   5   2.0000     -11.238081      -305.8037
   6   2.0000     -11.233458      -305.6779
   7   2.0000     -11.231203      -305.6166
   8   2.0000     -11.228715      -305.5489
   9   2.0000      -1.388267       -37.7767
  10   2.0000      -1.188957       -32.3532
  11   2.0000      -1.075262       -29.2594
  12   2.0000      -1.021378       -27.7931
  13   2.0000      -0.902668       -24.5628
  14   2.0000      -0.891126       -24.2488
  15   2.0000      -0.816634       -22.2217
  16   2.0000      -0.791321       -21.5329
  17   2.0000      -0.702564       -19.1177
  18   2.0000      -0.687046       -18.6955
  19   2.0000      -0.659467       -17.9450
  20   2.0000      -0.643654       -17.5147
  21   2.0000      -0.607895       -16.5417
  22   2.0000      -0.601516       -16.3681
  23   2.0000      -0.569994       -15.5103
  24   2.0000      -0.559539       -15.2258
  25   2.0000      -0.537211       -14.6183
  26   2.0000      -0.534728       -14.5507
  27   2.0000      -0.498437       -13.5632
  28   2.0000      -0.480645       -13.0790
  29   2.0000      -0.441285       -12.0080
  30   2.0000      -0.425602       -11.5812
  31   2.0000      -0.409138       -11.1332
  32   2.0000      -0.344834        -9.3834
  33   0.0000       0.130768         3.5584
  34   0.0000       0.132622         3.6088
  35   0.0000       0.150061         4.0834
  36   0.0000       0.155693         4.2366
  37   0.0000       0.171675         4.6715

MULLIKEN ATOMIC CHARGES
-----------------------
   0 O :   -0.270071
   1 C :    0.040116
   2 C :    0.223385
   3 C :   -0.328896
   4 C :   -0.092992
   5 C :   -0.266754
   6 C :   -0.182811
   7 C :   -0.132517
   8 C :   -0.247339
   9 H :    0.067805
  10 H :    0.143507
  11 H :    0.149141
  12 H :    0.135157
  13 H :    0.128821
  14 H :    0.123968
  15 H :    0.126674
  16 H :    0.126298
  17 H :    0.127491
  18 H :    0.129015
Sum of atomic charges:    0.0000000

LOEWDIN ATOMIC CHARGES
----------------------
   0 O :    0.131613
   1 C :   -0.268423
   2 C :   -0.205720
   3 C :   -0.163440
   4 C :   -0.165801
   5 C :   -0.227821
   6 C :   -0.245593
   7 C :   -0.153984
   8 C :   -0.120579
   9 H :    0.117367
  10 H :    0.137293
  11 H :    0.142888
  12 H :    0.151219
  13 H :    0.141470
  14 H :    0.144621
  15 H :    0.148038
  16 H :    0.141800
  17 H :    0.142761
  18 H :    0.152291

  Mayer bond orders larger than 0.1
B(  0-O ,  1-C ) :   2.0226 B(  0-O ,  2-C ) :  -0.1173 B(  1-C ,  2-C ) :   0.8756
B(  1-C ,  9-H ) :   0.9523 B(  2-C ,  3-C ) :   0.8107 B(  2-C ,  4-C ) :   0.8038
B(  2-C ,  8-C ) :   0.9234 B(  3-C ,  4-C ) :   0.9061 B(  3-C , 10-H ) :   0.9235
B(  3-C , 11-H ) :   0.9179 B(  4-C ,  5-C ) :   0.9004 B(  4-C , 12-H ) :   0.9232
B(  5-C ,  6-C ) :   0.9380 B(  5-C , 13-H ) :   0.9370 B(  5-C , 14-H ) :   0.9290
B(  6-C ,  7-C ) :   0.9283 B(  6-C , 15-H ) :   0.9102 B(  6-C , 16-H ) :   0.9367
B(  7-C ,  8-C ) :   1.7916 B(  7-C , 17-H ) :   0.9275 B(  8-C , 18-H ) :   0.9246

MP2 TOTAL ENERGY:     -385.219393413 Eh
FINAL SINGLE POINT ENERGY      -385.219393412534

DIPOLE MOMENT
-------------
                                X             Y             Z
Electronic contribution:     -4.45922      -4.08114       2.66835
Nuclear contribution   :      5.03042       5.17201      -3.13013
                        -----------------------------------------
Total Dipole Moment    :      0.57120       1.09087      -0.46177
                        -----------------------------------------
Magnitude (a.u.)       :      1.31510
Magnitude (Debye)      :      3.34272

                             ****ORCA TERMINATED NORMALLY****
TOTAL RUN TIME: 0 days 0 hours 19 minutes 32 seconds 862 msec
