                         Program Version 3.0.3 - RELEASE   -
|  1> ! RI-MP2 RIJK def2-TZVP def2-TZVP/C def2-TZVP/JK TIGHTSCF
|  2> % maxcore 2000
|  3> % mp2 density relaxed end
|  4> *xyz 0 1
|  5>  O        0.0438379969     1.4049943349    -0.1070643749
|  6>  C        0.0511398557     0.0401846795    -0.0255964561
|  7>  C        0.1128927736    -0.8383233360    -1.0841763406
|  8>  C        0.2339364523    -1.3190959495    -2.5184117899
|  9>  C        0.2259232469    -2.7671929418    -1.8874019955
| 10>  N        0.0971664928    -2.1094839865    -0.5781424571
| 11>  C        0.0344922219    -2.1156984647     0.7783535702
| 12>  C       -0.0027725878    -0.7743555240     1.1502428826
| 13>  H       -0.0055943449     1.7584484792     0.7855385638
| 14>  H       -0.6136066530    -1.1091562618    -3.1769690871
| 15>  H        1.1593103391    -1.0623338487    -3.0415840917
| 16>  H       -0.6283523314    -3.3960195712    -2.1546012177
| 17>  H        1.1529976847    -3.3350714847    -2.0087115589
| 18>  H        0.0097252791    -3.0136777066     1.3733779881
| 19>  H       -0.0694162359    -0.4095440677     2.1658143547
| 20> *
| 21>
| 22>                          ****END OF INPUT****

CARTESIAN COORDINATES (ANGSTROEM)
---------------------------------
  O      0.043838    1.404994   -0.107064
  C      0.051140    0.040185   -0.025596
  C      0.112893   -0.838323   -1.084176
  C      0.233936   -1.319096   -2.518412
  C      0.225923   -2.767193   -1.887402
  N      0.097166   -2.109484   -0.578142
  C      0.034492   -2.115698    0.778354
  C     -0.002773   -0.774356    1.150243
  H     -0.005594    1.758448    0.785539
  H     -0.613607   -1.109156   -3.176969
  H      1.159310   -1.062334   -3.041584
  H     -0.628352   -3.396020   -2.154601
  H      1.152998   -3.335071   -2.008712
  H      0.009725   -3.013678    1.373378
  H     -0.069416   -0.409544    2.165814

 Total Charge           Charge          ....    0
 Multiplicity           Mult            ....    1
 Number of Electrons    NEL             ....   58
 Basis Dimension        Dim             ....  290

ORBITAL ENERGIES
----------------

  NO   OCC          E(Eh)            E(eV)
   0   2.0000     -20.569704      -559.7301
   1   2.0000     -15.590292      -424.2334
   2   2.0000     -11.287656      -307.1527
   3   2.0000     -11.269888      -306.6693
   4   2.0000     -11.252652      -306.2002
   5   2.0000     -11.250821      -306.1504
   6   2.0000     -11.236893      -305.7714
   7   2.0000     -11.208759      -305.0059
   8   2.0000      -1.382714       -37.6256
   9   2.0000      -1.315860       -35.8064
  10   2.0000      -1.094984       -29.7960
  11   2.0000      -1.002294       -27.2738
  12   2.0000      -0.925071       -25.1725
  13   2.0000      -0.873730       -23.7754
  14   2.0000      -0.796507       -21.6741
  15   2.0000      -0.720742       -19.6124
  16   2.0000      -0.711644       -19.3648
  17   2.0000      -0.669663       -18.2225
  18   2.0000      -0.641831       -17.4651
  19   2.0000      -0.598147       -16.2764
  20   2.0000      -0.573203       -15.5976
  21   2.0000      -0.558866       -15.2075
  22   2.0000      -0.541109       -14.7243
  23   2.0000      -0.528844       -14.3906
  24   2.0000      -0.511816       -13.9272
  25   2.0000      -0.506944       -13.7947
  26   2.0000      -0.476916       -12.9775
  27   2.0000      -0.318290        -8.6611
  28   2.0000      -0.279358        -7.6017
  29   0.0000       0.142426         3.8756
  30   0.0000       0.145398         3.9565
  31   0.0000       0.162645         4.4258
  32   0.0000       0.166910         4.5418
  33   0.0000       0.187173         5.0932

MULLIKEN ATOMIC CHARGES
-----------------------
   0 O :   -0.447778
   1 C :    0.031331
   2 C :    0.045798
   3 C :   -0.188020
   4 C :   -0.146355
   5 N :   -0.028704
   6 C :   -0.204982
   7 C :   -0.173589
   8 H :    0.331647
   9 H :    0.131366
  10 H :    0.130723
  11 H :    0.127116
  12 H :    0.127239
  13 H :    0.140496
  14 H :    0.123712
Sum of atomic charges:   -0.0000000

LOEWDIN ATOMIC CHARGES
----------------------
   0 O :    0.044991
   1 C :   -0.298608
   2 C :   -0.179861
   3 C :   -0.197959
   4 C :   -0.187361
   5 N :    0.281923
   6 C :   -0.241856
   7 C :   -0.202311
   8 H :    0.190033
   9 H :    0.134467
  10 H :    0.134806
  11 H :    0.127214
  12 H :    0.127772
  13 H :    0.131069
  14 H :    0.135682

  Mayer bond orders larger than 0.1
B(  0-O ,  1-C ) :   1.1148 B(  0-O ,  8-H ) :   0.8373 B(  1-C ,  2-C ) :   1.4472
B(  1-C ,  7-C ) :   1.2772 B(  2-C ,  3-C ) :   0.9244 B(  2-C ,  5-N ) :   1.0763
B(  3-C ,  4-C ) :   0.9596 B(  3-C ,  9-H ) :   0.9170 B(  3-C , 10-H ) :   0.9138
B(  4-C ,  5-N ) :   0.8680 B(  4-C , 11-H ) :   0.9133 B(  4-C , 12-H ) :   0.9144
B(  5-N ,  6-C ) :   1.1953 B(  6-C ,  7-C ) :   1.3684 B(  6-C , 13-H ) :   0.9178
B(  7-C , 14-H ) :   0.9232

MP2 TOTAL ENERGY:     -362.027499287 Eh
FINAL SINGLE POINT ENERGY      -362.027499286638

DIPOLE MOMENT
-------------
                                X             Y             Z
Electronic contribution:     -0.23993       2.55519       2.01036
Nuclear contribution   :      0.28311      -3.19830      -2.12589
                        -----------------------------------------
Total Dipole Moment    :      0.04318      -0.64310      -0.11553
                        -----------------------------------------
Magnitude (a.u.)       :      0.65482
Magnitude (Debye)      :      1.66443

                             ****ORCA TERMINATED NORMALLY****
TOTAL RUN TIME: 0 days 0 hours 10 minutes 59 seconds 94 msec
