                         Program Version 3.0.3 - RELEASE   -
|  1> ! RI-MP2 RIJK def2-TZVP def2-TZVP/C def2-TZVP/JK TIGHTSCF
|  2> % maxcore 2000
|  3> % mp2 density relaxed end
|  4> *xyz 0 1
|  5>  C        0.1255799440     1.3518681706     0.1763606581
|  6>  O       -0.0794082690     0.0745649533    -0.4167690998
|  7>  C       -1.1772770475    -0.5895192280    -0.0038638613
|  8>  N       -1.4207952375    -1.7371570111    -0.4576302154
|  9>  C       -2.6048347761    -2.4810422252    -0.0414141064
| 10>  C       -3.4198030738    -1.9216788304     1.1294458655
| 11>  C       -3.4966920264    -2.6583603514    -1.2942213707
| 12>  C       -2.0801602659    -3.8856354318     0.2991367778
| 13>  O       -2.4979814701    -4.5807009969     1.1870928253
| 14>  H        1.0247543951     1.7625903531    -0.2838905518
| 15>  H       -0.7169508606     2.0263881337    -0.0191251530
| 16>  H        0.2814686830     1.2717103849     1.2589477975
| 17>  H       -1.7872490843    -0.0375590988     0.7222336481
| 18>  H       -3.9202836828    -0.9871194712     0.8578129156
| 19>  H       -4.1801787397    -2.6488104643     1.4202365521
| 20>  H       -2.7896186848    -1.7436785502     2.0060435479
| 21>  H       -2.9272225085    -3.1071670125    -2.1125135974
| 22>  H       -4.3605391937    -3.2905798996    -1.0692430150
| 23>  H       -3.8518029994    -1.6788819435    -1.6286612887
| 24>  H       -1.2668977920    -4.2173839807    -0.3818355084
| 25> *
| 26>
| 27>                          ****END OF INPUT****

CARTESIAN COORDINATES (ANGSTROEM)
---------------------------------
  C      0.125580    1.351868    0.176361
  O     -0.079408    0.074565   -0.416769
  C     -1.177277   -0.589519   -0.003864
  N     -1.420795   -1.737157   -0.457630
  C     -2.604835   -2.481042   -0.041414
  C     -3.419803   -1.921679    1.129446
  C     -3.496692   -2.658360   -1.294221
  C     -2.080160   -3.885635    0.299137
  O     -2.497981   -4.580701    1.187093
  H      1.024754    1.762590   -0.283891
  H     -0.716951    2.026388   -0.019125
  H      0.281469    1.271710    1.258948
  H     -1.787249   -0.037559    0.722234
  H     -3.920284   -0.987119    0.857813
  H     -4.180179   -2.648810    1.420237
  H     -2.789619   -1.743679    2.006044
  H     -2.927223   -3.107167   -2.112514
  H     -4.360539   -3.290580   -1.069243
  H     -3.851803   -1.678882   -1.628661
  H     -1.266898   -4.217384   -0.381836

 Total Charge           Charge          ....    0
 Multiplicity           Mult            ....    1
 Number of Electrons    NEL             ....   70
 Basis Dimension        Dim             ....  345

ORBITAL ENERGIES
----------------

  NO   OCC          E(Eh)            E(eV)
   0   2.0000     -20.599382      -560.5377
   1   2.0000     -20.551952      -559.2470
   2   2.0000     -15.553008      -423.2189
   3   2.0000     -11.343417      -308.6701
   4   2.0000     -11.321923      -308.0852
   5   2.0000     -11.300201      -307.4941
   6   2.0000     -11.281811      -306.9937
   7   2.0000     -11.227678      -305.5206
   8   2.0000     -11.224009      -305.4208
   9   2.0000      -1.434021       -39.0217
  10   2.0000      -1.392699       -37.8973
  11   2.0000      -1.238831       -33.7103
  12   2.0000      -1.069363       -29.0989
  13   2.0000      -0.967820       -26.3357
  14   2.0000      -0.949950       -25.8495
  15   2.0000      -0.893767       -24.3206
  16   2.0000      -0.823346       -22.4044
  17   2.0000      -0.759949       -20.6793
  18   2.0000      -0.716072       -19.4853
  19   2.0000      -0.687019       -18.6948
  20   2.0000      -0.670944       -18.2573
  21   2.0000      -0.642407       -17.4808
  22   2.0000      -0.631414       -17.1816
  23   2.0000      -0.610271       -16.6063
  24   2.0000      -0.588181       -16.0052
  25   2.0000      -0.555490       -15.1156
  26   2.0000      -0.550626       -14.9833
  27   2.0000      -0.540502       -14.7078
  28   2.0000      -0.529988       -14.4217
  29   2.0000      -0.522775       -14.2254
  30   2.0000      -0.518292       -14.1034
  31   2.0000      -0.491554       -13.3759
  32   2.0000      -0.429030       -11.6745
  33   2.0000      -0.416528       -11.3343
  34   2.0000      -0.382550       -10.4097
  35   0.0000       0.124377         3.3845
  36   0.0000       0.129677         3.5287
  37   0.0000       0.146205         3.9784
  38   0.0000       0.151870         4.1326
  39   0.0000       0.177733         4.8364

MULLIKEN ATOMIC CHARGES
-----------------------
   0 C :   -0.245540
   1 O :   -0.228216
   2 C :    0.063302
   3 N :   -0.232520
   4 C :    0.224755
   5 C :   -0.455057
   6 C :   -0.399095
   7 C :    0.080660
   8 O :   -0.266266
   9 H :    0.153531
  10 H :    0.132466
  11 H :    0.135841
  12 H :    0.079927
  13 H :    0.136818
  14 H :    0.160265
  15 H :    0.140929
  16 H :    0.146532
  17 H :    0.138510
  18 H :    0.131570
  19 H :    0.101588
Sum of atomic charges:    0.0000000

LOEWDIN ATOMIC CHARGES
----------------------
   0 C :   -0.333337
   1 O :    0.218457
   2 C :   -0.353270
   3 N :    0.135402
   4 C :   -0.375993
   5 C :   -0.279386
   6 C :   -0.257631
   7 C :   -0.251506
   8 O :    0.140381
   9 H :    0.119896
  10 H :    0.107821
  11 H :    0.108534
  12 H :    0.118183
  13 H :    0.124439
  14 H :    0.137964
  15 H :    0.128733
  16 H :    0.131631
  17 H :    0.130120
  18 H :    0.128504
  19 H :    0.121058

  Mayer bond orders larger than 0.1
B(  0-C ,  1-O ) :   0.8699 B(  0-C ,  9-H ) :   0.9385 B(  0-C , 10-H ) :   0.9356
B(  0-C , 11-H ) :   0.9355 B(  1-O ,  2-C ) :   1.0856 B(  2-C ,  3-N ) :   1.8694
B(  2-C , 12-H ) :   0.9321 B(  3-N ,  4-C ) :   0.8221 B(  4-C ,  5-C ) :   0.8869
B(  4-C ,  6-C ) :   0.8843 B(  4-C ,  7-C ) :   0.8355 B(  5-C , 13-H ) :   0.9373
B(  5-C , 14-H ) :   0.9178 B(  5-C , 15-H ) :   0.9348 B(  6-C , 16-H ) :   0.9269
B(  6-C , 17-H ) :   0.9304 B(  6-C , 18-H ) :   0.9272 B(  7-C ,  8-O ) :   2.0067
B(  7-C , 19-H ) :   0.9348

MP2 TOTAL ENERGY:     -439.560496685 Eh
FINAL SINGLE POINT ENERGY      -439.560496685298

DIPOLE MOMENT
-------------
                                X             Y             Z
Electronic contribution:      3.77471      -5.01537       0.12020
Nuclear contribution   :     -3.96068       6.61555      -0.06074
                        -----------------------------------------
Total Dipole Moment    :     -0.18597       1.60018       0.05946
                        -----------------------------------------
Magnitude (a.u.)       :      1.61205
Magnitude (Debye)      :      4.09749

                             ****ORCA TERMINATED NORMALLY****
TOTAL RUN TIME: 0 days 0 hours 16 minutes 34 seconds 594 msec
