                         Program Version 3.0.3 - RELEASE   -
|  1> ! RI-MP2 RIJK def2-TZVP def2-TZVP/C def2-TZVP/JK TIGHTSCF
|  2> % maxcore 2000
|  3> % mp2 density relaxed end
|  4> *xyz 0 1
|  5>  C        0.1046809420     1.5772439261    -0.0772953072
|  6>  C       -0.0043837241     0.0603016084     0.0375077142
|  7>  O        0.6219216670    -0.5644936510    -1.0860998967
|  8>  C        1.5321638338    -1.5668891320    -0.6659705964
|  9>  C        1.5980112206    -1.4703519744     0.8343062155
| 10>  C        2.5057875953    -2.3145184472     1.6603391342
| 11>  C        0.7153157899    -0.5429647530     1.2314281062
| 12>  C        0.4420481239    -0.1623687643     2.5687269525
| 13>  N        0.2016530904     0.1635683423     3.6548888233
| 14>  H        1.1535307870     1.8871679149    -0.0826100574
| 15>  H       -0.3643280289     1.9122659960    -1.0061641012
| 16>  H       -0.4029408766     2.0620157268     0.7622980797
| 17>  H       -1.0697556797    -0.2218381916     0.0597612472
| 18>  H        1.1897734854    -2.5672032297    -0.9822914242
| 19>  H        2.5141503241    -1.4019087488    -1.1352127198
| 20>  H        2.3075729109    -3.3794900930     1.4881478944
| 21>  H        3.5533756680    -2.1421630941     1.3850267386
| 22>  H        2.3883704812    -2.1079924756     2.7260911970
| 23> *
| 24>
| 25>                          ****END OF INPUT****

CARTESIAN COORDINATES (ANGSTROEM)
---------------------------------
  C      0.104681    1.577244   -0.077295
  C     -0.004384    0.060302    0.037508
  O      0.621922   -0.564494   -1.086100
  C      1.532164   -1.566889   -0.665971
  C      1.598011   -1.470352    0.834306
  C      2.505788   -2.314518    1.660339
  C      0.715316   -0.542965    1.231428
  C      0.442048   -0.162369    2.568727
  N      0.201653    0.163568    3.654889
  H      1.153531    1.887168   -0.082610
  H     -0.364328    1.912266   -1.006164
  H     -0.402941    2.062016    0.762298
  H     -1.069756   -0.221838    0.059761
  H      1.189773   -2.567203   -0.982291
  H      2.514150   -1.401909   -1.135213
  H      2.307573   -3.379490    1.488148
  H      3.553376   -2.142163    1.385027
  H      2.388370   -2.107992    2.726091

 Total Charge           Charge          ....    0
 Multiplicity           Mult            ....    1
 Number of Electrons    NEL             ....   66
 Basis Dimension        Dim             ....  333

ORBITAL ENERGIES
----------------

  NO   OCC          E(Eh)            E(eV)
   0   2.0000     -20.570539      -559.7528
   1   2.0000     -15.575663      -423.8353
   2   2.0000     -11.306921      -307.6770
   3   2.0000     -11.302856      -307.5663
   4   2.0000     -11.284913      -307.0781
   5   2.0000     -11.279852      -306.9404
   6   2.0000     -11.273120      -306.7572
   7   2.0000     -11.253768      -306.2306
   8   2.0000     -11.225048      -305.4491
   9   2.0000      -1.399777       -38.0899
  10   2.0000      -1.223180       -33.2844
  11   2.0000      -1.132678       -30.8217
  12   2.0000      -1.063172       -28.9304
  13   2.0000      -0.983406       -26.7599
  14   2.0000      -0.943352       -25.6699
  15   2.0000      -0.847716       -23.0675
  16   2.0000      -0.812704       -22.1148
  17   2.0000      -0.710078       -19.3222
  18   2.0000      -0.685582       -18.6556
  19   2.0000      -0.643970       -17.5233
  20   2.0000      -0.621116       -16.9014
  21   2.0000      -0.599790       -16.3211
  22   2.0000      -0.590839       -16.0775
  23   2.0000      -0.578813       -15.7503
  24   2.0000      -0.557735       -15.1767
  25   2.0000      -0.551277       -15.0010
  26   2.0000      -0.543651       -14.7935
  27   2.0000      -0.517541       -14.0830
  28   2.0000      -0.510505       -13.8916
  29   2.0000      -0.505648       -13.7594
  30   2.0000      -0.458143       -12.4667
  31   2.0000      -0.442690       -12.0462
  32   2.0000      -0.363278        -9.8853
  33   0.0000       0.093689         2.5494
  34   0.0000       0.120895         3.2897
  35   0.0000       0.147198         4.0055
  36   0.0000       0.166977         4.5437
  37   0.0000       0.178637         4.8610

MULLIKEN ATOMIC CHARGES
-----------------------
   0 C :   -0.394006
   1 C :    0.095142
   2 O :   -0.325864
   3 C :    0.026135
   4 C :   -0.085481
   5 C :   -0.414829
   6 C :    0.134255
   7 C :   -0.202593
   8 N :   -0.043747
   9 H :    0.128827
  10 H :    0.146509
  11 H :    0.140201
  12 H :    0.103687
  13 H :    0.109900
  14 H :    0.113473
  15 H :    0.151350
  16 H :    0.153180
  17 H :    0.163860
Sum of atomic charges:    0.0000000

LOEWDIN ATOMIC CHARGES
----------------------
   0 C :   -0.280950
   1 C :   -0.274776
   2 O :    0.182176
   3 C :   -0.256170
   4 C :   -0.128571
   5 C :   -0.255640
   6 C :   -0.133033
   7 C :   -0.154668
   8 N :    0.076784
   9 H :    0.127973
  10 H :    0.130225
  11 H :    0.132124
  12 H :    0.147759
  13 H :    0.132486
  14 H :    0.133353
  15 H :    0.139785
  16 H :    0.139794
  17 H :    0.141349

  Mayer bond orders larger than 0.1
B(  0-C ,  1-C ) :   0.9129 B(  0-C ,  9-H ) :   0.9343 B(  0-C , 10-H ) :   0.9335
B(  0-C , 11-H ) :   0.9258 B(  1-C ,  2-O ) :   0.9449 B(  1-C ,  6-C ) :   0.9323
B(  1-C , 12-H ) :   0.8973 B(  2-O ,  3-C ) :   0.9471 B(  3-C ,  4-C ) :   0.9968
B(  3-C , 13-H ) :   0.9120 B(  3-C , 14-H ) :   0.9006 B(  4-C ,  5-C ) :   0.8773
B(  4-C ,  6-C ) :   1.6580 B(  5-C , 15-H ) :   0.9260 B(  5-C , 16-H ) :   0.9314
B(  5-C , 17-H ) :   0.9427 B(  6-C ,  7-C ) :   0.8918 B(  7-C ,  8-N ) :   2.8489

MP2 TOTAL ENERGY:     -401.283431895 Eh
FINAL SINGLE POINT ENERGY      -401.283431895477

DIPOLE MOMENT
-------------
                                X             Y             Z
Electronic contribution:     -2.61168       0.37890       3.27449
Nuclear contribution   :      3.23424      -1.07397      -4.14004
                        -----------------------------------------
Total Dipole Moment    :      0.62256      -0.69507      -0.86555
                        -----------------------------------------
Magnitude (a.u.)       :      1.27274
Magnitude (Debye)      :      3.23506

                             ****ORCA TERMINATED NORMALLY****
TOTAL RUN TIME: 0 days 0 hours 18 minutes 56 seconds 170 msec
