                         Program Version 3.0.3 - RELEASE   -
|  1> ! RI-MP2 RIJK def2-TZVP def2-TZVP/C def2-TZVP/JK TIGHTSCF
|  2> % maxcore 2000
|  3> % mp2 density relaxed end
|  4> *xyz 0 1
|  5>  C        0.4586782998     1.4634495168    -0.3642385034
|  6>  C        0.1016366602     0.0518138625     0.0534465049
|  7>  O        0.6077469958    -0.9583292852    -0.8611567627
|  8>  C        1.3096946622    -1.6431048939     0.1923053085
|  9>  C        2.8277679711    -1.5404364532     0.1660863340
| 10>  N        3.3222290988    -0.1950107111    -0.1915918555
| 11>  C        3.2659603594    -0.5846232131     1.2247893119
| 12>  C        2.0522060990    -0.0143173152     1.9517846461
| 13>  C        0.8156861030    -0.6306069053     1.2581169518
| 14>  H        1.5395721539     1.5715402907    -0.4683319438
| 15>  H       -0.0095228134     1.6899043659    -1.3278241584
| 16>  H        0.0831864631     2.1859014866     0.3699394035
| 17>  H       -0.9904866177    -0.0450560435     0.1315080643
| 18>  H        0.9858360838    -2.6866829680     0.2838849472
| 19>  H        3.4253113953    -2.4034027457    -0.1089614350
| 20>  H        4.2757820873    -0.2714577781    -0.5357675561
| 21>  H        4.1959034706    -0.7244690698     1.7680468773
| 22>  H        2.0811950072    -0.3147696649     3.0044678124
| 23>  H        2.0495797627     1.0800037940     1.9271701854
| 24>  H        0.1073655979    -1.0254998494     1.9878509974
| 25> *
| 26>
| 27>                          ****END OF INPUT****

CARTESIAN COORDINATES (ANGSTROEM)
---------------------------------
  C      0.458678    1.463450   -0.364239
  C      0.101637    0.051814    0.053447
  O      0.607747   -0.958329   -0.861157
  C      1.309695   -1.643105    0.192305
  C      2.827768   -1.540436    0.166086
  N      3.322229   -0.195011   -0.191592
  C      3.265960   -0.584623    1.224789
  C      2.052206   -0.014317    1.951785
  C      0.815686   -0.630607    1.258117
  H      1.539572    1.571540   -0.468332
  H     -0.009523    1.689904   -1.327824
  H      0.083186    2.185901    0.369939
  H     -0.990487   -0.045056    0.131508
  H      0.985836   -2.686683    0.283885
  H      3.425311   -2.403403   -0.108961
  H      4.275782   -0.271458   -0.535768
  H      4.195903   -0.724469    1.768047
  H      2.081195   -0.314770    3.004468
  H      2.049580    1.080004    1.927170
  H      0.107366   -1.025500    1.987851

 Total Charge           Charge          ....    0
 Multiplicity           Mult            ....    1
 Number of Electrons    NEL             ....   68
 Basis Dimension        Dim             ....  345

ORBITAL ENERGIES
----------------

  NO   OCC          E(Eh)            E(eV)
   0   2.0000     -20.532499      -558.7177
   1   2.0000     -15.557987      -423.3544
   2   2.0000     -11.275897      -306.8327
   3   2.0000     -11.272270      -306.7341
   4   2.0000     -11.261780      -306.4486
   5   2.0000     -11.256230      -306.2976
   6   2.0000     -11.227886      -305.5263
   7   2.0000     -11.227263      -305.5094
   8   2.0000     -11.198960      -304.7392
   9   2.0000      -1.366720       -37.1903
  10   2.0000      -1.267006       -34.4770
  11   2.0000      -1.060054       -28.8455
  12   2.0000      -1.004160       -27.3246
  13   2.0000      -0.948343       -25.8057
  14   2.0000      -0.904317       -24.6077
  15   2.0000      -0.828559       -22.5462
  16   2.0000      -0.772310       -21.0156
  17   2.0000      -0.734496       -19.9867
  18   2.0000      -0.710969       -19.3464
  19   2.0000      -0.663975       -18.0677
  20   2.0000      -0.633196       -17.2301
  21   2.0000      -0.597341       -16.2545
  22   2.0000      -0.588949       -16.0261
  23   2.0000      -0.567305       -15.4371
  24   2.0000      -0.548562       -14.9271
  25   2.0000      -0.535224       -14.5642
  26   2.0000      -0.516423       -14.0526
  27   2.0000      -0.497233       -13.5304
  28   2.0000      -0.466730       -12.7004
  29   2.0000      -0.460649       -12.5349
  30   2.0000      -0.433112       -11.7856
  31   2.0000      -0.427145       -11.6232
  32   2.0000      -0.405391       -11.0312
  33   2.0000      -0.378497       -10.2994
  34   0.0000       0.132771         3.6129
  35   0.0000       0.151976         4.1355
  36   0.0000       0.164884         4.4867
  37   0.0000       0.172280         4.6880
  38   0.0000       0.185703         5.0532

MULLIKEN ATOMIC CHARGES
-----------------------
   0 C :   -0.428124
   1 C :    0.090923
   2 O :   -0.344089
   3 C :    0.173542
   4 C :   -0.160714
   5 N :   -0.377859
   6 C :   -0.043587
   7 C :   -0.224009
   8 C :   -0.090085
   9 H :    0.161561
  10 H :    0.133636
  11 H :    0.116156
  12 H :    0.074416
  13 H :    0.085152
  14 H :    0.132307
  15 H :    0.213302
  16 H :    0.126209
  17 H :    0.115745
  18 H :    0.125465
  19 H :    0.120051
Sum of atomic charges:    0.0000000

LOEWDIN ATOMIC CHARGES
----------------------
   0 C :   -0.303442
   1 C :   -0.279544
   2 O :    0.157697
   3 C :   -0.241744
   4 C :   -0.228600
   5 N :    0.017187
   6 C :   -0.247900
   7 C :   -0.216103
   8 C :   -0.171378
   9 H :    0.128407
  10 H :    0.128281
  11 H :    0.124364
  12 H :    0.132771
  13 H :    0.134388
  14 H :    0.134230
  15 H :    0.168869
  16 H :    0.132517
  17 H :    0.140700
  18 H :    0.144775
  19 H :    0.144524

  Mayer bond orders larger than 0.1
B(  0-C ,  1-C ) :   0.8816 B(  0-C ,  9-H ) :   0.9330 B(  0-C , 10-H ) :   0.9310
B(  0-C , 11-H ) :   0.9271 B(  1-C ,  2-O ) :   0.9378 B(  1-C ,  8-C ) :   0.9698
B(  1-C , 12-H ) :   0.9254 B(  2-O ,  3-C ) :   0.9615 B(  3-C ,  4-C ) :   0.9008
B(  3-C ,  8-C ) :   0.9146 B(  3-C , 13-H ) :   0.9306 B(  4-C ,  5-N ) :   0.8922
B(  4-C ,  6-C ) :   0.9190 B(  4-C , 14-H ) :   0.9234 B(  5-N ,  6-C ) :   0.9327
B(  5-N , 15-H ) :   0.8658 B(  6-C ,  7-C ) :   0.9506 B(  6-C , 16-H ) :   0.9260
B(  7-C ,  8-C ) :   0.9467 B(  7-C , 17-H ) :   0.9226 B(  7-C , 18-H ) :   0.9172
B(  8-C , 19-H ) :   0.9268

MP2 TOTAL ENERGY:     -402.428161626 Eh
FINAL SINGLE POINT ENERGY      -402.428161626379

DIPOLE MOMENT
-------------
                                X             Y             Z
Electronic contribution:      0.76078      -3.78104      -1.98180
Nuclear contribution   :     -0.19819       3.54523       2.91035
                        -----------------------------------------
Total Dipole Moment    :      0.56258      -0.23581       0.92855
                        -----------------------------------------
Magnitude (a.u.)       :      1.11099
Magnitude (Debye)      :      2.82392

                             ****ORCA TERMINATED NORMALLY****
TOTAL RUN TIME: 0 days 0 hours 21 minutes 38 seconds 75 msec
