                         Program Version 3.0.3 - RELEASE   -
|  1> ! RI-MP2 RIJK def2-TZVP def2-TZVP/C def2-TZVP/JK TIGHTSCF
|  2> % maxcore 2000
|  3> % mp2 density relaxed end
|  4> *xyz 0 1
|  5>  C        0.6478444026    -0.5042321749     1.5453441828
|  6>  C        0.0541284692    -0.1733939307     0.1705598715
|  7>  C       -1.3830475565    -0.6578618824    -0.0481281137
|  8>  C       -2.3918354359    -0.0549770640     0.9335310863
|  9>  O       -2.5539333500     1.3477580824     0.7856919094
| 10>  C       -1.9231500949    -0.5549939083    -1.5289178353
| 11>  C       -2.1247669864    -2.0713881391    -1.5237751966
| 12>  N       -0.7841362130    -2.6674695910    -1.2961446472
| 13>  C       -1.5845242305    -2.1884244267    -0.1434496128
| 14>  H        1.6967246282    -0.1964520480     1.5969265353
| 15>  H        0.1209510056    -0.0019837301     2.3638895458
| 16>  H        0.6118179068    -1.5814377689     1.7412825551
| 17>  H        0.0994978770     0.9109921560    -0.0061663004
| 18>  H        0.6739780194    -0.6300257775    -0.6065385911
| 19>  H       -3.3818457887    -0.4864055049     0.7479859293
| 20>  H       -2.1185786008    -0.3169088186     1.9676234915
| 21>  H       -1.7180729174     1.7678367087     1.0099516963
| 22>  H       -2.8454278717     0.0254991272    -1.5866303678
| 23>  H       -1.2142329799    -0.1901912761    -2.2764915016
| 24>  H       -2.9026857279    -2.6437381528    -2.0142063672
| 25>  H       -0.8959070394    -3.6806627075    -1.3318922352
| 26>  H       -1.8583455158    -2.8652350526     0.6584658155
| 27> *
| 28>
| 29>                          ****END OF INPUT****

CARTESIAN COORDINATES (ANGSTROEM)
---------------------------------
  C      0.647844   -0.504232    1.545344
  C      0.054128   -0.173394    0.170560
  C     -1.383048   -0.657862   -0.048128
  C     -2.391835   -0.054977    0.933531
  O     -2.553933    1.347758    0.785692
  C     -1.923150   -0.554994   -1.528918
  C     -2.124767   -2.071388   -1.523775
  N     -0.784136   -2.667470   -1.296145
  C     -1.584524   -2.188424   -0.143450
  H      1.696725   -0.196452    1.596927
  H      0.120951   -0.001984    2.363890
  H      0.611818   -1.581438    1.741283
  H      0.099498    0.910992   -0.006166
  H      0.673978   -0.630026   -0.606539
  H     -3.381846   -0.486406    0.747986
  H     -2.118579   -0.316909    1.967623
  H     -1.718073    1.767837    1.009952
  H     -2.845428    0.025499   -1.586630
  H     -1.214233   -0.190191   -2.276492
  H     -2.902686   -2.643738   -2.014206
  H     -0.895907   -3.680663   -1.331892
  H     -1.858346   -2.865235    0.658466

 Total Charge           Charge          ....    0
 Multiplicity           Mult            ....    1
 Number of Electrons    NEL             ....   70
 Basis Dimension        Dim             ....  357

ORBITAL ENERGIES
----------------

  NO   OCC          E(Eh)            E(eV)
   0   2.0000     -20.554591      -559.3189
   1   2.0000     -15.559927      -423.4071
   2   2.0000     -11.272459      -306.7392
   3   2.0000     -11.259618      -306.3898
   4   2.0000     -11.258810      -306.3678
   5   2.0000     -11.237079      -305.7765
   6   2.0000     -11.220216      -305.3176
   7   2.0000     -11.216799      -305.2246
   8   2.0000     -11.215230      -305.1819
   9   2.0000      -1.359004       -36.9804
  10   2.0000      -1.278473       -34.7890
  11   2.0000      -1.086673       -29.5699
  12   2.0000      -1.010203       -27.4890
  13   2.0000      -0.940013       -25.5790
  14   2.0000      -0.874124       -23.7861
  15   2.0000      -0.863989       -23.5103
  16   2.0000      -0.795556       -21.6482
  17   2.0000      -0.726278       -19.7630
  18   2.0000      -0.718432       -19.5495
  19   2.0000      -0.674431       -18.3522
  20   2.0000      -0.634305       -17.2603
  21   2.0000      -0.626656       -17.0522
  22   2.0000      -0.581376       -15.8200
  23   2.0000      -0.573719       -15.6117
  24   2.0000      -0.565140       -15.3782
  25   2.0000      -0.548127       -14.9153
  26   2.0000      -0.525432       -14.2977
  27   2.0000      -0.517056       -14.0698
  28   2.0000      -0.493792       -13.4368
  29   2.0000      -0.482018       -13.1164
  30   2.0000      -0.467800       -12.7295
  31   2.0000      -0.452482       -12.3127
  32   2.0000      -0.428051       -11.6479
  33   2.0000      -0.418137       -11.3781
  34   2.0000      -0.362041        -9.8516
  35   0.0000       0.129319         3.5189
  36   0.0000       0.142911         3.8888
  37   0.0000       0.158681         4.3179
  38   0.0000       0.168519         4.5856
  39   0.0000       0.182372         4.9626

MULLIKEN ATOMIC CHARGES
-----------------------
   0 C :   -0.423568
   1 C :   -0.289913
   2 C :    0.221392
   3 C :   -0.102290
   4 O :   -0.469961
   5 C :   -0.223840
   6 C :   -0.112031
   7 N :   -0.378464
   8 C :   -0.171802
   9 H :    0.140173
  10 H :    0.121314
  11 H :    0.135513
  12 H :    0.113756
  13 H :    0.145025
  14 H :    0.121918
  15 H :    0.118726
  16 H :    0.316485
  17 H :    0.140727
  18 H :    0.107918
  19 H :    0.135457
  20 H :    0.213874
  21 H :    0.139591
Sum of atomic charges:    0.0000000

LOEWDIN ATOMIC CHARGES
----------------------
   0 C :   -0.315870
   1 C :   -0.260687
   2 C :   -0.249868
   3 C :   -0.304585
   4 O :   -0.039353
   5 C :   -0.172134
   6 C :   -0.232431
   7 N :    0.000346
   8 C :   -0.205764
   9 H :    0.123002
  10 H :    0.116212
  11 H :    0.124384
  12 H :    0.134117
  13 H :    0.149864
  14 H :    0.135952
  15 H :    0.120677
  16 H :    0.172051
  17 H :    0.141636
  18 H :    0.134276
  19 H :    0.127037
  20 H :    0.170705
  21 H :    0.130433

  Mayer bond orders larger than 0.1
B(  0-C ,  1-C ) :   0.8984 B(  0-C ,  9-H ) :   0.9414 B(  0-C , 10-H ) :   0.9389
B(  0-C , 11-H ) :   0.9388 B(  1-C ,  2-C ) :   0.8656 B(  1-C , 12-H ) :   0.9411
B(  1-C , 13-H ) :   0.9320 B(  2-C ,  3-C ) :   0.8870 B(  2-C ,  5-C ) :   0.9362
B(  2-C ,  8-C ) :   0.8450 B(  3-C ,  4-O ) :   0.9275 B(  3-C , 14-H ) :   0.9244
B(  3-C , 15-H ) :   0.9471 B(  4-O , 16-H ) :   0.8476 B(  5-C ,  6-C ) :   0.9491
B(  5-C , 17-H ) :   0.9273 B(  5-C , 18-H ) :   0.8945 B(  6-C ,  7-N ) :   0.9574
B(  6-C ,  8-C ) :   0.9118 B(  6-C , 19-H ) :   0.9224 B(  7-N ,  8-C ) :   0.9406
B(  7-N , 20-H ) :   0.8698 B(  8-C , 21-H ) :   0.9090

MP2 TOTAL ENERGY:     -403.615834539 Eh
FINAL SINGLE POINT ENERGY      -403.615834539043

DIPOLE MOMENT
-------------
                                X             Y             Z
Electronic contribution:     -3.40033      -0.91381      -2.84646
Nuclear contribution   :      3.42723       0.36190       3.13217
                        -----------------------------------------
Total Dipole Moment    :      0.02690      -0.55191       0.28571
                        -----------------------------------------
Magnitude (a.u.)       :      0.62206
Magnitude (Debye)      :      1.58114

                             ****ORCA TERMINATED NORMALLY****
TOTAL RUN TIME: 0 days 0 hours 21 minutes 55 seconds 573 msec
