                         Program Version 3.0.3 - RELEASE   -
|  1> ! RI-MP2 RIJK def2-TZVP def2-TZVP/C def2-TZVP/JK TIGHTSCF
|  2> % maxcore 2000
|  3> % mp2 density relaxed end
|  4> *xyz 0 1
|  5>  N        0.0424567816     1.2773675961     0.1032162909
|  6>  C       -0.0213669864    -0.0846435839    -0.0518162347
|  7>  N       -1.1508876322    -0.7771755495     0.1070855084
|  8>  N       -0.6486541651    -2.0611724877     0.1316471222
|  9>  C       -0.8931430894    -3.3254007900    -0.5984924686
| 10>  C       -0.3885859766    -3.2394785791    -2.0120381843
| 11>  C        0.6087692613    -3.3951624185    -0.8663079644
| 12>  C        0.6653315946    -2.0369223535    -0.2047799253
| 13>  N        1.1301785107    -0.8159428814    -0.3222736007
| 14>  H        0.8034079493     1.7113875064    -0.3967460730
| 15>  H       -0.8427622581     1.7519508064     0.0086394348
| 16>  H       -1.5708000772    -4.0740638431    -0.2118499585
| 17>  H       -0.5461689504    -4.1191244405    -2.6311135904
| 18>  H       -0.4458532443    -2.2945870294    -2.5424927833
| 19>  H        1.2785868824    -4.2357342124    -0.7600174231
| 20> *
| 21>
| 22>                          ****END OF INPUT****

CARTESIAN COORDINATES (ANGSTROEM)
---------------------------------
  N      0.042457    1.277368    0.103216
  C     -0.021367   -0.084644   -0.051816
  N     -1.150888   -0.777176    0.107086
  N     -0.648654   -2.061172    0.131647
  C     -0.893143   -3.325401   -0.598492
  C     -0.388586   -3.239479   -2.012038
  C      0.608769   -3.395162   -0.866308
  C      0.665332   -2.036922   -0.204780
  N      1.130179   -0.815943   -0.322274
  H      0.803408    1.711388   -0.396746
  H     -0.842762    1.751951    0.008639
  H     -1.570800   -4.074064   -0.211850
  H     -0.546169   -4.119124   -2.631114
  H     -0.445853   -2.294587   -2.542493
  H      1.278587   -4.235734   -0.760017

 Total Charge           Charge          ....    0
 Multiplicity           Mult            ....    1
 Number of Electrons    NEL             ....   64
 Basis Dimension        Dim             ....  315

ORBITAL ENERGIES
----------------

  NO   OCC          E(Eh)            E(eV)
   0   2.0000     -15.621944      -425.0947
   1   2.0000     -15.569105      -423.6569
   2   2.0000     -15.565280      -423.5528
   3   2.0000     -15.554559      -423.2611
   4   2.0000     -11.330068      -308.3068
   5   2.0000     -11.319541      -308.0204
   6   2.0000     -11.304908      -307.6222
   7   2.0000     -11.280840      -306.9673
   8   2.0000     -11.269286      -306.6529
   9   2.0000      -1.411957       -38.4213
  10   2.0000      -1.261757       -34.3342
  11   2.0000      -1.189720       -32.3739
  12   2.0000      -1.176227       -32.0068
  13   2.0000      -1.043884       -28.4055
  14   2.0000      -0.900415       -24.5015
  15   2.0000      -0.855955       -23.2917
  16   2.0000      -0.799256       -21.7489
  17   2.0000      -0.766992       -20.8709
  18   2.0000      -0.714946       -19.4547
  19   2.0000      -0.703043       -19.1308
  20   2.0000      -0.661836       -18.0095
  21   2.0000      -0.644104       -17.5270
  22   2.0000      -0.597002       -16.2452
  23   2.0000      -0.585462       -15.9312
  24   2.0000      -0.561487       -15.2788
  25   2.0000      -0.504277       -13.7221
  26   2.0000      -0.495544       -13.4844
  27   2.0000      -0.457510       -12.4495
  28   2.0000      -0.446706       -12.1555
  29   2.0000      -0.427660       -11.6372
  30   2.0000      -0.394407       -10.7324
  31   2.0000      -0.328708        -8.9446
  32   0.0000       0.121406         3.3036
  33   0.0000       0.144051         3.9198
  34   0.0000       0.149137         4.0582
  35   0.0000       0.168229         4.5777
  36   0.0000       0.171308         4.6615

MULLIKEN ATOMIC CHARGES
-----------------------
   0 N :   -0.507933
   1 C :    0.283936
   2 N :   -0.292127
   3 N :    0.038966
   4 C :   -0.034910
   5 C :   -0.245010
   6 C :   -0.132296
   7 C :    0.059236
   8 N :   -0.314966
   9 H :    0.264449
  10 H :    0.260338
  11 H :    0.154128
  12 H :    0.139609
  13 H :    0.164860
  14 H :    0.161720
Sum of atomic charges:   -0.0000000

LOEWDIN ATOMIC CHARGES
----------------------
   0 N :   -0.056606
   1 C :   -0.446959
   2 N :    0.020383
   3 N :    0.223145
   4 C :   -0.165985
   5 C :   -0.171307
   6 C :   -0.137048
   7 C :   -0.292196
   8 N :    0.105500
   9 H :    0.175843
  10 H :    0.174481
  11 H :    0.139909
  12 H :    0.143050
  13 H :    0.144432
  14 H :    0.143358

  Mayer bond orders larger than 0.1
B(  0-N ,  1-C ) :   1.0967 B(  0-N ,  9-H ) :   0.8673 B(  0-N , 10-H ) :   0.8700
B(  1-C ,  2-N ) :   1.5340 B(  1-C ,  8-N ) :   1.2276 B(  2-N ,  3-N ) :   0.9856
B(  2-N ,  7-C ) :   0.1011 B(  3-N ,  4-C ) :   0.8839 B(  3-N ,  7-C ) :   1.2288
B(  4-C ,  5-C ) :   0.8848 B(  4-C ,  6-C ) :   0.8727 B(  4-C , 11-H ) :   0.9190
B(  5-C ,  6-C ) :   0.8621 B(  5-C , 12-H ) :   0.9179 B(  5-C , 13-H ) :   0.9156
B(  6-C ,  7-C ) :   0.9321 B(  6-C , 14-H ) :   0.9138 B(  7-C ,  8-N ) :   1.5863

MP2 TOTAL ENERGY:     -412.236762815 Eh
FINAL SINGLE POINT ENERGY      -412.236762814854

DIPOLE MOMENT
-------------
                                X             Y             Z
Electronic contribution:      0.51606       1.13898       2.87603
Nuclear contribution   :     -0.76106      -1.79698      -3.76268
                        -----------------------------------------
Total Dipole Moment    :     -0.24500      -0.65800      -0.88665
                        -----------------------------------------
Magnitude (a.u.)       :      1.13099
Magnitude (Debye)      :      2.87475

                             ****ORCA TERMINATED NORMALLY****
TOTAL RUN TIME: 0 days 0 hours 18 minutes 20 seconds 294 msec
