                         Program Version 3.0.3 - RELEASE   -
|  1> ! RI-MP2 RIJK def2-TZVP def2-TZVP/C def2-TZVP/JK TIGHTSCF
|  2> % maxcore 2000
|  3> % mp2 density relaxed end
|  4> *xyz 0 1
|  5>  O        0.1847526342     1.4246993972    -0.1480185654
|  6>  C        0.0583766996     0.0386832325    -0.0368654377
|  7>  C        0.0454413822    -0.6696049232     1.3630058559
|  8>  C       -1.4289391241    -0.1636661214     1.5281144977
|  9>  C       -1.3499544357    -0.6485068164     0.0395831639
| 10>  C       -0.5772544515    -1.8474546803     0.6032696383
| 11>  C       -0.1213789047    -3.1339577703     0.1020782242
| 12>  O       -1.1167266054    -3.0199394985     1.1533791706
| 13>  H       -0.4049011728     1.8535412126     0.4804737543
| 14>  H        0.7483419941    -0.3837824505    -0.7710882059
| 15>  H        0.8351796500    -0.6934082155     2.1130001922
| 16>  H       -2.0682480974    -0.7456707428     2.1929117308
| 17>  H       -1.5782662545     0.9055857209     1.7026123631
| 18>  H       -2.1408697156    -0.6484100513    -0.7095482688
| 19>  H       -0.4974503852    -3.5211985816    -0.8436133330
| 20>  H        0.8365549068    -3.5413860314     0.4215818797
| 21> *
| 22>
| 23>                          ****END OF INPUT****

CARTESIAN COORDINATES (ANGSTROEM)
---------------------------------
  O      0.184753    1.424699   -0.148019
  C      0.058377    0.038683   -0.036865
  C      0.045441   -0.669605    1.363006
  C     -1.428939   -0.163666    1.528114
  C     -1.349954   -0.648507    0.039583
  C     -0.577254   -1.847455    0.603270
  C     -0.121379   -3.133958    0.102078
  O     -1.116727   -3.019939    1.153379
  H     -0.404901    1.853541    0.480474
  H      0.748342   -0.383782   -0.771088
  H      0.835180   -0.693408    2.113000
  H     -2.068248   -0.745671    2.192912
  H     -1.578266    0.905586    1.702612
  H     -2.140870   -0.648410   -0.709548
  H     -0.497450   -3.521199   -0.843613
  H      0.836555   -3.541386    0.421582

 Total Charge           Charge          ....    0
 Multiplicity           Mult            ....    1
 Number of Electrons    NEL             ....   60
 Basis Dimension        Dim             ....  296

ORBITAL ENERGIES
----------------

  NO   OCC          E(Eh)            E(eV)
   0   2.0000     -20.569886      -559.7351
   1   2.0000     -20.566174      -559.6341
   2   2.0000     -11.304332      -307.6065
   3   2.0000     -11.299518      -307.4755
   4   2.0000     -11.286283      -307.1154
   5   2.0000     -11.252866      -306.2060
   6   2.0000     -11.252831      -306.2051
   7   2.0000     -11.247257      -306.0534
   8   2.0000      -1.417581       -38.5743
   9   2.0000      -1.378620       -37.5142
  10   2.0000      -1.206852       -32.8401
  11   2.0000      -0.941295       -25.6139
  12   2.0000      -0.901280       -24.5251
  13   2.0000      -0.881429       -23.9849
  14   2.0000      -0.850065       -23.1314
  15   2.0000      -0.756941       -20.5974
  16   2.0000      -0.694865       -18.9082
  17   2.0000      -0.690667       -18.7940
  18   2.0000      -0.671662       -18.2768
  19   2.0000      -0.645304       -17.5596
  20   2.0000      -0.583570       -15.8797
  21   2.0000      -0.574669       -15.6375
  22   2.0000      -0.550522       -14.9805
  23   2.0000      -0.524579       -14.2745
  24   2.0000      -0.500248       -13.6124
  25   2.0000      -0.471178       -12.8214
  26   2.0000      -0.467670       -12.7259
  27   2.0000      -0.440663       -11.9910
  28   2.0000      -0.426417       -11.6034
  29   2.0000      -0.404017       -10.9939
  30   0.0000       0.135586         3.6895
  31   0.0000       0.152662         4.1541
  32   0.0000       0.172031         4.6812
  33   0.0000       0.174980         4.7614
  34   0.0000       0.193612         5.2685

MULLIKEN ATOMIC CHARGES
-----------------------
   0 O :   -0.450334
   1 C :    0.029020
   2 C :   -0.057053
   3 C :   -0.267165
   4 C :   -0.057060
   5 C :    0.059335
   6 C :   -0.108770
   7 O :   -0.345545
   8 H :    0.316558
   9 H :    0.113465
  10 H :    0.141139
  11 H :    0.136727
  12 H :    0.097943
  13 H :    0.141138
  14 H :    0.125301
  15 H :    0.125302
Sum of atomic charges:    0.0000000

LOEWDIN ATOMIC CHARGES
----------------------
   0 O :    0.001013
   1 C :   -0.278023
   2 C :   -0.131689
   3 C :   -0.189981
   4 C :   -0.131690
   5 C :   -0.299692
   6 C :   -0.219461
   7 O :    0.169222
   8 H :    0.175133
   9 H :    0.141933
  10 H :    0.129839
  11 H :    0.137588
  12 H :    0.118356
  13 H :    0.129839
  14 H :    0.123807
  15 H :    0.123807

  Mayer bond orders larger than 0.1
B(  0-O ,  1-C ) :   0.9937 B(  0-O ,  8-H ) :   0.8336 B(  1-C ,  2-C ) :   0.8769
B(  1-C ,  4-C ) :   0.8769 B(  1-C ,  9-H ) :   0.9539 B(  2-C ,  3-C ) :   0.8895
B(  2-C ,  5-C ) :   0.8406 B(  2-C , 10-H ) :   0.8886 B(  3-C ,  4-C ) :   0.8895
B(  3-C , 11-H ) :   0.9172 B(  3-C , 12-H ) :   0.9291 B(  4-C ,  5-C ) :   0.8406
B(  4-C , 13-H ) :   0.8886 B(  5-C ,  6-C ) :   1.0135 B(  5-C ,  7-O ) :   0.9135
B(  6-C ,  7-O ) :   0.8876 B(  6-C , 14-H ) :   0.9143 B(  6-C , 15-H ) :   0.9143

MP2 TOTAL ENERGY:     -383.020699168 Eh
FINAL SINGLE POINT ENERGY      -383.020699167723

DIPOLE MOMENT
-------------
                                X             Y             Z
Electronic contribution:      0.03862      -0.88041      -0.05472
Nuclear contribution   :     -0.00522       0.97998       0.02105
                        -----------------------------------------
Total Dipole Moment    :      0.03340       0.09957      -0.03367
                        -----------------------------------------
Magnitude (a.u.)       :      0.11028
Magnitude (Debye)      :      0.28032

                             ****ORCA TERMINATED NORMALLY****
TOTAL RUN TIME: 0 days 0 hours 10 minutes 43 seconds 118 msec
