                         Program Version 3.0.3 - RELEASE   -
|  1> ! RI-MP2 RIJK def2-TZVP def2-TZVP/C def2-TZVP/JK TIGHTSCF
|  2> % maxcore 2000
|  3> % mp2 density relaxed end
|  4> *xyz 0 1
|  5>  C       -0.3573696124     1.5576380957     0.1408022978
|  6>  C       -0.0905644928     0.0588488452     0.1109661532
|  7>  C        0.4034777116    -0.5612028741    -1.2061978935
|  8>  N        1.7297100523     0.0422000419    -1.4896568827
|  9>  C        1.6218994428    -1.1068846277    -0.5529010145
| 10>  C        1.2100010520    -0.5307040607     0.8062695668
| 11>  C        2.1870431677     0.3998673529     1.4977747563
| 12>  O        1.5728784471     0.8553420412     2.7005947315
| 13>  H        0.4467807848     2.1032585981    -0.3596909672
| 14>  H       -1.2956575866     1.7943198450    -0.3733823381
| 15>  H       -0.4290020864     1.9143782677     1.1718837879
| 16>  H       -0.9626368341    -0.4880644330     0.4811359195
| 17>  H       -0.1930342467    -0.9738165204    -2.0113850080
| 18>  H        2.0425114030    -0.3338261433    -2.3841331050
| 19>  H        2.1629782365    -2.0258915647    -0.7451538735
| 20>  H        0.9280755550    -1.3249844850     1.5035725373
| 21>  H        3.1185856010    -0.1498442004     1.7152254483
| 22>  H        2.4438767482     1.2343080817     0.8337140079
| 23>  H        2.1310478469     1.5403641701     3.0795334761
| 24> *
| 25>
| 26>                          ****END OF INPUT****

CARTESIAN COORDINATES (ANGSTROEM)
---------------------------------
  C     -0.357370    1.557638    0.140802
  C     -0.090564    0.058849    0.110966
  C      0.403478   -0.561203   -1.206198
  N      1.729710    0.042200   -1.489657
  C      1.621899   -1.106885   -0.552901
  C      1.210001   -0.530704    0.806270
  C      2.187043    0.399867    1.497775
  O      1.572878    0.855342    2.700595
  H      0.446781    2.103259   -0.359691
  H     -1.295658    1.794320   -0.373382
  H     -0.429002    1.914378    1.171884
  H     -0.962637   -0.488064    0.481136
  H     -0.193034   -0.973817   -2.011385
  H      2.042511   -0.333826   -2.384133
  H      2.162978   -2.025892   -0.745154
  H      0.928076   -1.324984    1.503573
  H      3.118586   -0.149844    1.715225
  H      2.443877    1.234308    0.833714
  H      2.131048    1.540364    3.079533

 Total Charge           Charge          ....    0
 Multiplicity           Mult            ....    1
 Number of Electrons    NEL             ....   62
 Basis Dimension        Dim             ....  314

ORBITAL ENERGIES
----------------

  NO   OCC          E(Eh)            E(eV)
   0   2.0000     -20.548872      -559.1632
   1   2.0000     -15.556472      -423.3131
   2   2.0000     -11.264704      -306.5282
   3   2.0000     -11.256346      -306.3008
   4   2.0000     -11.254502      -306.2506
   5   2.0000     -11.226763      -305.4958
   6   2.0000     -11.225588      -305.4638
   7   2.0000     -11.197495      -304.6993
   8   2.0000      -1.351687       -36.7813
   9   2.0000      -1.274766       -34.6882
  10   2.0000      -1.065090       -28.9826
  11   2.0000      -0.978524       -26.6270
  12   2.0000      -0.920944       -25.0602
  13   2.0000      -0.838279       -22.8107
  14   2.0000      -0.802047       -21.8248
  15   2.0000      -0.725949       -19.7541
  16   2.0000      -0.714669       -19.4471
  17   2.0000      -0.680994       -18.5308
  18   2.0000      -0.629722       -17.1356
  19   2.0000      -0.596040       -16.2191
  20   2.0000      -0.584629       -15.9086
  21   2.0000      -0.555772       -15.1233
  22   2.0000      -0.544205       -14.8086
  23   2.0000      -0.515874       -14.0377
  24   2.0000      -0.507289       -13.8040
  25   2.0000      -0.493686       -13.4339
  26   2.0000      -0.457898       -12.4600
  27   2.0000      -0.452718       -12.3191
  28   2.0000      -0.432624       -11.7723
  29   2.0000      -0.411419       -11.1953
  30   2.0000      -0.359453        -9.7812
  31   0.0000       0.138398         3.7660
  32   0.0000       0.145128         3.9491
  33   0.0000       0.164952         4.4886
  34   0.0000       0.167273         4.5517
  35   0.0000       0.186203         5.0669

MULLIKEN ATOMIC CHARGES
-----------------------
   0 C :   -0.446247
   1 C :   -0.006418
   2 C :   -0.080181
   3 N :   -0.417507
   4 C :   -0.088627
   5 C :   -0.002209
   6 C :   -0.129520
   7 O :   -0.475691
   8 H :    0.144420
   9 H :    0.123767
  10 H :    0.143830
  11 H :    0.099770
  12 H :    0.137153
  13 H :    0.212268
  14 H :    0.138190
  15 H :    0.104760
  16 H :    0.095689
  17 H :    0.130883
  18 H :    0.315671
Sum of atomic charges:   -0.0000000

LOEWDIN ATOMIC CHARGES
----------------------
   0 C :   -0.298974
   1 C :   -0.206189
   2 C :   -0.217189
   3 N :   -0.006224
   4 C :   -0.216946
   5 C :   -0.193587
   6 C :   -0.327485
   7 O :   -0.052450
   8 H :    0.127511
   9 H :    0.121838
  10 H :    0.127290
  11 H :    0.150544
  12 H :    0.126935
  13 H :    0.170135
  14 H :    0.127242
  15 H :    0.154853
  16 H :    0.117896
  17 H :    0.123889
  18 H :    0.170911

  Mayer bond orders larger than 0.1
B(  0-C ,  1-C ) :   0.8803 B(  0-C ,  8-H ) :   0.9414 B(  0-C ,  9-H ) :   0.9334
B(  0-C , 10-H ) :   0.9347 B(  1-C ,  2-C ) :   0.9259 B(  1-C ,  5-C ) :   0.9824
B(  1-C , 11-H ) :   0.9249 B(  2-C ,  3-N ) :   0.9094 B(  2-C ,  4-C ) :   0.8588
B(  2-C , 12-H ) :   0.9129 B(  3-N ,  4-C ) :   0.9119 B(  3-N , 13-H ) :   0.8683
B(  4-C ,  5-C ) :   0.9146 B(  4-C , 14-H ) :   0.9125 B(  5-C ,  6-C ) :   0.8857
B(  5-C , 15-H ) :   0.9198 B(  6-C ,  7-O ) :   1.0038 B(  6-C , 16-H ) :   0.9286
B(  6-C , 17-H ) :   0.9355 B(  7-O , 18-H ) :   0.8490

MP2 TOTAL ENERGY:     -364.396340488 Eh
FINAL SINGLE POINT ENERGY      -364.396340487741

DIPOLE MOMENT
-------------
                                X             Y             Z
Electronic contribution:      1.45679      -2.05847       0.07270
Nuclear contribution   :     -1.14658       1.69237      -0.42098
                        -----------------------------------------
Total Dipole Moment    :      0.31020      -0.36610      -0.34828
                        -----------------------------------------
Magnitude (a.u.)       :      0.59292
Magnitude (Debye)      :      1.50708

                             ****ORCA TERMINATED NORMALLY****
TOTAL RUN TIME: 0 days 0 hours 12 minutes 57 seconds 8 msec
