                         Program Version 3.0.3 - RELEASE   -
|  1> ! RI-MP2 RIJK def2-TZVP def2-TZVP/C def2-TZVP/JK TIGHTSCF
|  2> % maxcore 2000
|  3> % mp2 density relaxed end
|  4> *xyz 0 1
|  5>  C        0.0359480638     1.5606410424    -0.0574385170
|  6>  C        0.0261534847     0.0509731103    -0.0340447008
|  7>  C        0.6250771095    -0.9487844224    -1.0353441204
|  8>  N        0.0158396698    -1.8986233032    -0.0016750288
|  9>  C        0.5729645014    -0.9172409045     1.0553688616
| 10>  C       -0.3502310783    -0.9798582339     2.2600686447
| 11>  C       -1.7016851808    -0.9812102487     1.5086630050
| 12>  C       -1.2005983225    -0.9244604911     0.0622956632
| 13>  C       -2.2638756087    -1.0403740570    -1.0051938152
| 14>  H        1.0602507608     1.9487875065    -0.0862670433
| 15>  H       -0.4910659615     1.9458989853    -0.9375666896
| 16>  H       -0.4525142104     1.9754886987     0.8317498666
| 17>  H        0.1930883678    -1.0304161819    -2.0352504432
| 18>  H        1.7161364064    -1.0181558201    -1.0908710815
| 19>  H        1.6512137428    -0.9940166517     1.2135186807
| 20>  H       -0.1874280502    -1.8886075358     2.8459009934
| 21>  H       -0.2203882535    -0.1207626363     2.9252686618
| 22>  H       -2.2878220981    -1.8877984683     1.6869675414
| 23>  H       -2.3357077633    -0.1217556318     1.7491617647
| 24>  H       -3.0138141286    -0.2521581629    -0.8748004884
| 25>  H       -1.8722548447    -0.9603681362    -2.0220288242
| 26>  H       -2.7776213162    -2.0039974275    -0.9191464709
| 27> *
| 28>
| 29>                          ****END OF INPUT****

CARTESIAN COORDINATES (ANGSTROEM)
---------------------------------
  C      0.035948    1.560641   -0.057439
  C      0.026153    0.050973   -0.034045
  C      0.625077   -0.948784   -1.035344
  N      0.015840   -1.898623   -0.001675
  C      0.572965   -0.917241    1.055369
  C     -0.350231   -0.979858    2.260069
  C     -1.701685   -0.981210    1.508663
  C     -1.200598   -0.924460    0.062296
  C     -2.263876   -1.040374   -1.005194
  H      1.060251    1.948788   -0.086267
  H     -0.491066    1.945899   -0.937567
  H     -0.452514    1.975489    0.831750
  H      0.193088   -1.030416   -2.035250
  H      1.716136   -1.018156   -1.090871
  H      1.651214   -0.994017    1.213519
  H     -0.187428   -1.888608    2.845901
  H     -0.220388   -0.120763    2.925269
  H     -2.287822   -1.887798    1.686968
  H     -2.335708   -0.121756    1.749162
  H     -3.013814   -0.252158   -0.874800
  H     -1.872255   -0.960368   -2.022029
  H     -2.777621   -2.003997   -0.919146

 Total Charge           Charge          ....    0
 Multiplicity           Mult            ....    1
 Number of Electrons    NEL             ....   68
 Basis Dimension        Dim             ....  357

ORBITAL ENERGIES
----------------

  NO   OCC          E(Eh)            E(eV)
   0   2.0000     -15.553471      -423.2315
   1   2.0000     -11.261080      -306.4296
   2   2.0000     -11.253481      -306.2228
   3   2.0000     -11.245792      -306.0136
   4   2.0000     -11.242335      -305.9195
   5   2.0000     -11.219763      -305.3053
   6   2.0000     -11.217293      -305.2381
   7   2.0000     -11.216649      -305.2205
   8   2.0000     -11.215254      -305.1826
   9   2.0000      -1.293322       -35.1931
  10   2.0000      -1.057020       -28.7630
  11   2.0000      -1.009833       -27.4790
  12   2.0000      -1.005547       -27.3623
  13   2.0000      -0.894086       -24.3293
  14   2.0000      -0.877915       -23.8893
  15   2.0000      -0.850479       -23.1427
  16   2.0000      -0.780735       -21.2449
  17   2.0000      -0.687926       -18.7194
  18   2.0000      -0.641756       -17.4631
  19   2.0000      -0.625807       -17.0291
  20   2.0000      -0.605153       -16.4671
  21   2.0000      -0.593026       -16.1370
  22   2.0000      -0.589832       -16.0501
  23   2.0000      -0.564353       -15.3568
  24   2.0000      -0.552552       -15.0357
  25   2.0000      -0.537679       -14.6310
  26   2.0000      -0.508472       -13.8362
  27   2.0000      -0.484019       -13.1708
  28   2.0000      -0.473880       -12.8949
  29   2.0000      -0.460970       -12.5436
  30   2.0000      -0.439470       -11.9586
  31   2.0000      -0.432369       -11.7653
  32   2.0000      -0.414368       -11.2755
  33   2.0000      -0.359579        -9.7846
  34   0.0000       0.129969         3.5366
  35   0.0000       0.154255         4.1975
  36   0.0000       0.163098         4.4381
  37   0.0000       0.173388         4.7181
  38   0.0000       0.188744         5.1360

MULLIKEN ATOMIC CHARGES
-----------------------
   0 C :   -0.391512
   1 C :    0.051458
   2 C :   -0.168161
   3 N :   -0.219759
   4 C :   -0.060866
   5 C :   -0.235640
   6 C :   -0.258913
   7 C :    0.092196
   8 C :   -0.408115
   9 H :    0.135338
  10 H :    0.135258
  11 H :    0.134153
  12 H :    0.109528
  13 H :    0.108448
  14 H :    0.113474
  15 H :    0.118460
  16 H :    0.111924
  17 H :    0.116295
  18 H :    0.113664
  19 H :    0.132795
  20 H :    0.126382
  21 H :    0.143594
Sum of atomic charges:   -0.0000000

LOEWDIN ATOMIC CHARGES
----------------------
   0 C :   -0.282302
   1 C :   -0.210418
   2 C :   -0.212953
   3 N :    0.140369
   4 C :   -0.190845
   5 C :   -0.232101
   6 C :   -0.207256
   7 C :   -0.243416
   8 C :   -0.269808
   9 H :    0.129225
  10 H :    0.129043
  11 H :    0.128683
  12 H :    0.118789
  13 H :    0.123211
  14 H :    0.135916
  15 H :    0.139255
  16 H :    0.136024
  17 H :    0.140066
  18 H :    0.136843
  19 H :    0.131672
  20 H :    0.125495
  21 H :    0.134506

  Mayer bond orders larger than 0.1
B(  0-C ,  1-C ) :   0.8465 B(  0-C ,  9-H ) :   0.9344 B(  0-C , 10-H ) :   0.9370
B(  0-C , 11-H ) :   0.9395 B(  1-C ,  2-C ) :   0.9214 B(  1-C ,  3-N ) :  -0.1135
B(  1-C ,  4-C ) :   0.9265 B(  1-C ,  7-C ) :   0.9439 B(  2-C ,  3-N ) :   0.9270
B(  2-C , 12-H ) :   0.9257 B(  2-C , 13-H ) :   0.9235 B(  3-N ,  4-C ) :   0.9682
B(  3-N ,  7-C ) :   0.9685 B(  4-C ,  5-C ) :   0.9672 B(  4-C , 14-H ) :   0.9104
B(  5-C ,  6-C ) :   1.0333 B(  5-C , 15-H ) :   0.9118 B(  5-C , 16-H ) :   0.9181
B(  6-C ,  7-C ) :   0.9427 B(  6-C , 17-H ) :   0.9105 B(  6-C , 18-H ) :   0.9189
B(  7-C ,  8-C ) :   0.8818 B(  8-C , 19-H ) :   0.9349 B(  8-C , 20-H ) :   0.9308
B(  8-C , 21-H ) :   0.9405

MP2 TOTAL ENERGY:     -366.516300969 Eh
FINAL SINGLE POINT ENERGY      -366.516300968942

DIPOLE MOMENT
-------------
                                X             Y             Z
Electronic contribution:      2.40640      -3.12433       0.56145
Nuclear contribution   :     -2.51883       3.90100      -0.51892
                        -----------------------------------------
Total Dipole Moment    :     -0.11243       0.77667       0.04253
                        -----------------------------------------
Magnitude (a.u.)       :      0.78592
Magnitude (Debye)      :      1.99764

                             ****ORCA TERMINATED NORMALLY****
TOTAL RUN TIME: 0 days 0 hours 24 minutes 18 seconds 732 msec
