                         Program Version 3.0.3 - RELEASE   -
|  1> ! RI-MP2 RIJK def2-TZVP def2-TZVP/C def2-TZVP/JK TIGHTSCF
|  2> % maxcore 2000
|  3> % mp2 density relaxed end
|  4> *xyz 0 1
|  5>  C       -0.0553499674     1.6011645136    -0.0655888735
|  6>  C        0.0432647762     0.0864106842     0.0151598525
|  7>  C        0.9966907848    -0.6722375010    -0.9552077566
|  8>  C        1.4614387735    -1.5792272942     0.2218333159
|  9>  C        2.9443764710    -1.5413750718     0.5877603783
| 10>  O        3.1424252188    -0.3195409303     1.3208109536
| 11>  C        1.9628789513     0.2093282620     1.7592122909
| 12>  O        1.9271650855     1.1789184479     2.4614674328
| 13>  C        0.7917776655    -0.5939871965     1.2095171797
| 14>  H        0.9299327241     2.0737777274    -0.0160671107
| 15>  H       -0.5284881926     1.9011035422    -1.0071306632
| 16>  H       -0.6529069710     2.0049758228     0.7576314155
| 17>  H       -0.9588704238    -0.3510266555    -0.0416585530
| 18>  H        0.5354657047    -1.1730979653    -1.8088085645
| 19>  H        1.8052442131    -0.0327627881    -1.3250018177
| 20>  H        1.0599046781    -2.5923216820     0.1924489403
| 21>  H        3.2362157903    -2.3796610132     1.2312890647
| 22>  H        3.6081172212    -1.5198304838    -0.2815383800
| 23>  H        0.1789337667    -0.9585222385     2.0360021749
| 24> *
| 25>
| 26>                          ****END OF INPUT****

CARTESIAN COORDINATES (ANGSTROEM)
---------------------------------
  C     -0.055350    1.601165   -0.065589
  C      0.043265    0.086411    0.015160
  C      0.996691   -0.672238   -0.955208
  C      1.461439   -1.579227    0.221833
  C      2.944376   -1.541375    0.587760
  O      3.142425   -0.319541    1.320811
  C      1.962879    0.209328    1.759212
  O      1.927165    1.178918    2.461467
  C      0.791778   -0.593987    1.209517
  H      0.929933    2.073778   -0.016067
  H     -0.528488    1.901104   -1.007131
  H     -0.652907    2.004976    0.757631
  H     -0.958870   -0.351027   -0.041659
  H      0.535466   -1.173098   -1.808809
  H      1.805244   -0.032763   -1.325002
  H      1.059905   -2.592322    0.192449
  H      3.236216   -2.379661    1.231289
  H      3.608117   -1.519830   -0.281538
  H      0.178934   -0.958522    2.036002

 Total Charge           Charge          ....    0
 Multiplicity           Mult            ....    1
 Number of Electrons    NEL             ....   68
 Basis Dimension        Dim             ....  339

ORBITAL ENERGIES
----------------

  NO   OCC          E(Eh)            E(eV)
   0   2.0000     -20.596950      -560.4715
   1   2.0000     -20.535775      -558.8069
   2   2.0000     -11.372998      -309.4750
   3   2.0000     -11.298803      -307.4561
   4   2.0000     -11.252504      -306.1962
   5   2.0000     -11.251827      -306.1778
   6   2.0000     -11.249838      -306.1237
   7   2.0000     -11.238167      -305.8061
   8   2.0000     -11.217395      -305.2408
   9   2.0000      -1.452403       -39.5219
  10   2.0000      -1.361452       -37.0470
  11   2.0000      -1.163085       -31.6491
  12   2.0000      -1.020616       -27.7724
  13   2.0000      -0.975233       -26.5374
  14   2.0000      -0.940237       -25.5851
  15   2.0000      -0.847374       -23.0582
  16   2.0000      -0.792293       -21.5594
  17   2.0000      -0.742552       -20.2059
  18   2.0000      -0.710607       -19.3366
  19   2.0000      -0.678851       -18.4725
  20   2.0000      -0.647520       -17.6199
  21   2.0000      -0.641999       -17.4697
  22   2.0000      -0.602582       -16.3971
  23   2.0000      -0.593918       -16.1613
  24   2.0000      -0.576586       -15.6897
  25   2.0000      -0.566055       -15.4031
  26   2.0000      -0.544731       -14.8229
  27   2.0000      -0.507889       -13.8204
  28   2.0000      -0.500412       -13.6169
  29   2.0000      -0.484072       -13.1723
  30   2.0000      -0.462004       -12.5718
  31   2.0000      -0.449737       -12.2380
  32   2.0000      -0.438217       -11.9245
  33   2.0000      -0.421632       -11.4732
  34   0.0000       0.121707         3.3118
  35   0.0000       0.140197         3.8149
  36   0.0000       0.153775         4.1844
  37   0.0000       0.167006         4.5445
  38   0.0000       0.181382         4.9356

MULLIKEN ATOMIC CHARGES
-----------------------
   0 C :   -0.409215
   1 C :   -0.049531
   2 C :   -0.295217
   3 C :   -0.104734
   4 C :   -0.062938
   5 O :   -0.225755
   6 C :    0.195889
   7 O :   -0.285171
   8 C :   -0.046508
   9 H :    0.138342
  10 H :    0.131077
  11 H :    0.140360
  12 H :    0.103621
  13 H :    0.128788
  14 H :    0.123793
  15 H :    0.129603
  16 H :    0.119480
  17 H :    0.124731
  18 H :    0.143384
Sum of atomic charges:   -0.0000000

LOEWDIN ATOMIC CHARGES
----------------------
   0 C :   -0.294158
   1 C :   -0.225014
   2 C :   -0.189756
   3 C :   -0.202881
   4 C :   -0.253356
   5 O :    0.252071
   6 C :   -0.445553
   7 O :    0.141552
   8 C :   -0.152425
   9 H :    0.128377
  10 H :    0.125706
  11 H :    0.130485
  12 H :    0.152849
  13 H :    0.128046
  14 H :    0.141375
  15 H :    0.148548
  16 H :    0.127785
  17 H :    0.130857
  18 H :    0.155492

  Mayer bond orders larger than 0.1
B(  0-C ,  1-C ) :   0.9144 B(  0-C ,  9-H ) :   0.9306 B(  0-C , 10-H ) :   0.9345
B(  0-C , 11-H ) :   0.9353 B(  1-C ,  2-C ) :   0.9335 B(  1-C ,  8-C ) :   0.8894
B(  1-C , 12-H ) :   0.9234 B(  2-C ,  3-C ) :   0.9301 B(  2-C , 13-H ) :   0.9254
B(  2-C , 14-H ) :   0.9084 B(  3-C ,  4-C ) :   0.9525 B(  3-C ,  8-C ) :   0.9398
B(  3-C , 15-H ) :   0.9012 B(  4-C ,  5-O ) :   0.8811 B(  4-C , 16-H ) :   0.9332
B(  4-C , 17-H ) :   0.9171 B(  5-O ,  6-C ) :   1.1111 B(  6-C ,  7-O ) :   2.0211
B(  6-C ,  8-C ) :   0.8888 B(  8-C , 18-H ) :   0.9005

MP2 TOTAL ENERGY:     -422.358944718 Eh
FINAL SINGLE POINT ENERGY      -422.358944717631

DIPOLE MOMENT
-------------
                                X             Y             Z
Electronic contribution:      4.71973       0.10885       6.14569
Nuclear contribution   :     -5.32303      -1.39448      -7.16965
                        -----------------------------------------
Total Dipole Moment    :     -0.60330      -1.28563      -1.02395
                        -----------------------------------------
Magnitude (a.u.)       :      1.75080
Magnitude (Debye)      :      4.45018

                             ****ORCA TERMINATED NORMALLY****
TOTAL RUN TIME: 0 days 0 hours 17 minutes 30 seconds 537 msec
