                         Program Version 3.0.3 - RELEASE   -
|  1> ! RI-MP2 RIJK def2-TZVP def2-TZVP/C def2-TZVP/JK TIGHTSCF
|  2> % maxcore 2000
|  3> % mp2 density relaxed end
|  4> *xyz 0 1
|  5>  C       -0.0297875732     1.5679451776     0.1683917474
|  6>  C       -0.0159234142     0.0437055723     0.0206238784
|  7>  C        0.6563419760    -0.4568648650    -1.2687567868
|  8>  C        0.7852855396    -2.0034906285    -1.3363818698
|  9>  C        0.5645857995    -2.3967781829    -2.8189084305
| 10>  C       -0.2140523182    -3.6983227240    -2.9895208833
| 11>  O       -0.3068268836    -3.9758893650    -4.3799128460
| 12>  C       -0.1352116034    -1.1803884881    -3.3823654242
| 13>  C       -0.0855890576    -0.1411981060    -2.5517680643
| 14>  H        0.9873361835     1.9756585873     0.1522847992
| 15>  H       -0.5907691329     2.0488140751    -0.6396339378
| 16>  H       -0.4928366874     1.8689489283     1.1133879452
| 17>  H        0.5084626463    -0.3959557720     0.8792747450
| 18>  H       -1.0428301238    -0.3434114562     0.0577988502
| 19>  H        1.6580014531     0.0009048289    -1.3145497001
| 20>  H        1.7368189401    -2.3651716749    -0.9376280155
| 21>  H       -0.0098179866    -2.4496648552    -0.7241297917
| 22>  H        1.5262481791    -2.5378601010    -3.3343412136
| 23>  H        0.3037993536    -4.5117773328    -2.4550291202
| 24>  H       -1.2126745254    -3.5870849201    -2.5363857644
| 25>  H       -0.8472778270    -4.7625145956    -4.4957155078
| 26>  H       -0.5855727478    -1.1883772493    -4.3679976293
| 27>  H       -0.4913019397     0.8425318673    -2.7633031399
| 28> *
| 29>
| 30>                          ****END OF INPUT****

CARTESIAN COORDINATES (ANGSTROEM)
---------------------------------
  C     -0.029788    1.567945    0.168392
  C     -0.015923    0.043706    0.020624
  C      0.656342   -0.456865   -1.268757
  C      0.785286   -2.003491   -1.336382
  C      0.564586   -2.396778   -2.818908
  C     -0.214052   -3.698323   -2.989521
  O     -0.306827   -3.975889   -4.379913
  C     -0.135212   -1.180388   -3.382365
  C     -0.085589   -0.141198   -2.551768
  H      0.987336    1.975659    0.152285
  H     -0.590769    2.048814   -0.639634
  H     -0.492837    1.868949    1.113388
  H      0.508463   -0.395956    0.879275
  H     -1.042830   -0.343411    0.057799
  H      1.658001    0.000905   -1.314550
  H      1.736819   -2.365172   -0.937628
  H     -0.009818   -2.449665   -0.724130
  H      1.526248   -2.537860   -3.334341
  H      0.303799   -4.511777   -2.455029
  H     -1.212675   -3.587085   -2.536386
  H     -0.847278   -4.762515   -4.495716
  H     -0.585573   -1.188377   -4.367998
  H     -0.491302    0.842532   -2.763303

 Total Charge           Charge          ....    0
 Multiplicity           Mult            ....    1
 Number of Electrons    NEL             ....   70
 Basis Dimension        Dim             ....  363

ORBITAL ENERGIES
----------------

  NO   OCC          E(Eh)            E(eV)
   0   2.0000     -20.554343      -559.3121
   1   2.0000     -11.272734      -306.7467
   2   2.0000     -11.224996      -305.4477
   3   2.0000     -11.223646      -305.4109
   4   2.0000     -11.217706      -305.2493
   5   2.0000     -11.217657      -305.2480
   6   2.0000     -11.215179      -305.1805
   7   2.0000     -11.213262      -305.1284
   8   2.0000     -11.211633      -305.0840
   9   2.0000      -1.358351       -36.9626
  10   2.0000      -1.137005       -30.9395
  11   2.0000      -1.044182       -28.4136
  12   2.0000      -0.986391       -26.8411
  13   2.0000      -0.952222       -25.9113
  14   2.0000      -0.875139       -23.8138
  15   2.0000      -0.821711       -22.3599
  16   2.0000      -0.768285       -20.9061
  17   2.0000      -0.715679       -19.4746
  18   2.0000      -0.694518       -18.8988
  19   2.0000      -0.664091       -18.0708
  20   2.0000      -0.642073       -17.4717
  21   2.0000      -0.612052       -16.6548
  22   2.0000      -0.593461       -16.1489
  23   2.0000      -0.566024       -15.4023
  24   2.0000      -0.555042       -15.1034
  25   2.0000      -0.529506       -14.4086
  26   2.0000      -0.511841       -13.9279
  27   2.0000      -0.500689       -13.6244
  28   2.0000      -0.482243       -13.1225
  29   2.0000      -0.481733       -13.1086
  30   2.0000      -0.473277       -12.8785
  31   2.0000      -0.458537       -12.4774
  32   2.0000      -0.446111       -12.1393
  33   2.0000      -0.436800       -11.8859
  34   2.0000      -0.339044        -9.2259
  35   0.0000       0.135855         3.6968
  36   0.0000       0.139775         3.8035
  37   0.0000       0.157381         4.2826
  38   0.0000       0.162484         4.4214
  39   0.0000       0.169693         4.6176

MULLIKEN ATOMIC CHARGES
-----------------------
   0 C :   -0.404014
   1 C :   -0.211824
   2 C :    0.068331
   3 C :   -0.329251
   4 C :    0.093619
   5 C :   -0.097620
   6 O :   -0.472175
   7 C :   -0.212433
   8 C :   -0.227172
   9 H :    0.124213
  10 H :    0.124850
  11 H :    0.133646
  12 H :    0.112017
  13 H :    0.108926
  14 H :    0.090487
  15 H :    0.126518
  16 H :    0.111176
  17 H :    0.093915
  18 H :    0.100101
  19 H :    0.096136
  20 H :    0.315049
  21 H :    0.133176
  22 H :    0.122329
Sum of atomic charges:   -0.0000000

LOEWDIN ATOMIC CHARGES
----------------------
   0 C :   -0.319365
   1 C :   -0.275161
   2 C :   -0.233140
   3 C :   -0.190067
   4 C :   -0.237235
   5 C :   -0.331373
   6 O :   -0.048393
   7 C :   -0.133210
   8 C :   -0.140969
   9 H :    0.120813
  10 H :    0.119150
  11 H :    0.120938
  12 H :    0.137537
  13 H :    0.136603
  14 H :    0.154888
  15 H :    0.133143
  16 H :    0.143079
  17 H :    0.158343
  18 H :    0.117003
  19 H :    0.116846
  20 H :    0.171842
  21 H :    0.141734
  22 H :    0.136994

  Mayer bond orders larger than 0.1
B(  0-C ,  1-C ) :   0.9205 B(  0-C ,  9-H ) :   0.9387 B(  0-C , 10-H ) :   0.9409
B(  0-C , 11-H ) :   0.9414 B(  1-C ,  2-C ) :   0.8979 B(  1-C , 12-H ) :   0.9363
B(  1-C , 13-H ) :   0.9273 B(  2-C ,  3-C ) :   0.9252 B(  2-C ,  8-C ) :   0.8970
B(  2-C , 14-H ) :   0.9162 B(  3-C ,  4-C ) :   0.9265 B(  3-C , 15-H ) :   0.9254
B(  3-C , 16-H ) :   0.9267 B(  4-C ,  5-C ) :   0.9054 B(  4-C ,  7-C ) :   0.9101
B(  4-C , 17-H ) :   0.9090 B(  5-C ,  6-O ) :   1.0220 B(  5-C , 18-H ) :   0.9348
B(  5-C , 19-H ) :   0.9183 B(  6-O , 20-H ) :   0.8481 B(  7-C ,  8-C ) :   1.7785
B(  7-C , 21-H ) :   0.9357 B(  8-C , 22-H ) :   0.9282

MP2 TOTAL ENERGY:     -387.626896443 Eh
FINAL SINGLE POINT ENERGY      -387.626896443317

DIPOLE MOMENT
-------------
                                X             Y             Z
Electronic contribution:     -0.00435      -4.44158      -6.71135
Nuclear contribution   :     -0.19632       4.07842       7.15490
                        -----------------------------------------
Total Dipole Moment    :     -0.20068      -0.36316       0.44355
                        -----------------------------------------
Magnitude (a.u.)       :      0.60736
Magnitude (Debye)      :      1.54380

                             ****ORCA TERMINATED NORMALLY****
TOTAL RUN TIME: 0 days 0 hours 29 minutes 54 seconds 728 msec
