                         Program Version 3.0.3 - RELEASE   -
|  1> ! RI-MP2 RIJK def2-TZVP def2-TZVP/C def2-TZVP/JK TIGHTSCF
|  2> % maxcore 2000
|  3> % mp2 density relaxed end
|  4> *xyz 0 1
|  5>  C        0.8998360708    -2.2178576619     1.3442389725
|  6>  C        0.1419856593    -1.3703467030     0.3111505429
|  7>  C       -0.2732414393    -0.0144260122     0.9002719127
|  8>  C        0.9785645769    -1.2011386782    -0.9652388657
|  9>  C        0.9430086319    -2.2895080258    -2.0041236405
| 10>  N        0.3669377695    -0.9921469405    -2.2961364416
| 11>  C       -1.0758874293    -0.8931733665    -2.4534046074
| 12>  C        2.2160390589    -0.4720607944    -0.7838120897
| 13>  C        3.2481257433     0.1200863539    -0.6080276276
| 14>  H        1.1502054930    -3.2050920319     0.9433824899
| 15>  H        1.8331717781    -1.7286295624     1.6394830547
| 16>  H        0.2922243255    -2.3599913367     2.2436450328
| 17>  H       -0.7646526980    -1.9192198898     0.0347405599
| 18>  H        0.6076829784     0.5721992435     1.1785881833
| 19>  H       -0.8549203675     0.5755710422     0.1857570176
| 20>  H       -0.8843791732    -0.1562274285     1.7972927414
| 21>  H        1.8423260001    -2.5540064707    -2.5535838090
| 22>  H        0.2653460488    -3.1206114151    -1.8025314581
| 23>  H       -1.6622663457    -1.5932847042    -1.8392815259
| 24>  H       -1.3996553105     0.1264900750    -2.2245611495
| 25>  H       -1.3140494391    -1.0935959325    -3.5031331633
| 26>  H        4.1582002283     0.6493658997    -0.4696428495
| 27> *
| 28>
| 29>                          ****END OF INPUT****

CARTESIAN COORDINATES (ANGSTROEM)
---------------------------------
  C      0.899836   -2.217858    1.344239
  C      0.141986   -1.370347    0.311151
  C     -0.273241   -0.014426    0.900272
  C      0.978565   -1.201139   -0.965239
  C      0.943009   -2.289508   -2.004124
  N      0.366938   -0.992147   -2.296136
  C     -1.075887   -0.893173   -2.453405
  C      2.216039   -0.472061   -0.783812
  C      3.248126    0.120086   -0.608028
  H      1.150205   -3.205092    0.943382
  H      1.833172   -1.728630    1.639483
  H      0.292224   -2.359991    2.243645
  H     -0.764653   -1.919220    0.034741
  H      0.607683    0.572199    1.178588
  H     -0.854920    0.575571    0.185757
  H     -0.884379   -0.156227    1.797293
  H      1.842326   -2.554006   -2.553584
  H      0.265346   -3.120611   -1.802531
  H     -1.662266   -1.593285   -1.839282
  H     -1.399655    0.126490   -2.224561
  H     -1.314049   -1.093596   -3.503133
  H      4.158200    0.649366   -0.469643

 Total Charge           Charge          ....    0
 Multiplicity           Mult            ....    1
 Number of Electrons    NEL             ....   68
 Basis Dimension        Dim             ....  357

ORBITAL ENERGIES
----------------

  NO   OCC          E(Eh)            E(eV)
   0   2.0000     -15.564999      -423.5451
   1   2.0000     -11.285814      -307.1026
   2   2.0000     -11.259602      -306.3894
   3   2.0000     -11.250445      -306.1402
   4   2.0000     -11.240784      -305.8773
   5   2.0000     -11.228714      -305.5488
   6   2.0000     -11.217988      -305.2570
   7   2.0000     -11.214898      -305.1729
   8   2.0000     -11.213496      -305.1347
   9   2.0000      -1.281966       -34.8841
  10   2.0000      -1.085121       -29.5276
  11   2.0000      -1.028371       -27.9834
  12   2.0000      -0.989379       -26.9224
  13   2.0000      -0.931528       -25.3482
  14   2.0000      -0.877248       -23.8711
  15   2.0000      -0.834203       -22.6998
  16   2.0000      -0.796142       -21.6641
  17   2.0000      -0.705127       -19.1875
  18   2.0000      -0.673329       -18.3222
  19   2.0000      -0.659827       -17.9548
  20   2.0000      -0.615315       -16.7436
  21   2.0000      -0.594896       -16.1879
  22   2.0000      -0.587493       -15.9865
  23   2.0000      -0.573926       -15.6173
  24   2.0000      -0.549935       -14.9645
  25   2.0000      -0.539716       -14.6864
  26   2.0000      -0.510482       -13.8909
  27   2.0000      -0.499016       -13.5789
  28   2.0000      -0.481673       -13.1070
  29   2.0000      -0.465259       -12.6603
  30   2.0000      -0.458976       -12.4894
  31   2.0000      -0.393329       -10.7030
  32   2.0000      -0.383074       -10.4240
  33   2.0000      -0.356409        -9.6984
  34   0.0000       0.135612         3.6902
  35   0.0000       0.155049         4.2191
  36   0.0000       0.164665         4.4808
  37   0.0000       0.166977         4.5437
  38   0.0000       0.173339         4.7168

MULLIKEN ATOMIC CHARGES
-----------------------
   0 C :   -0.406907
   1 C :    0.000599
   2 C :   -0.412724
   3 C :   -0.063047
   4 C :   -0.184494
   5 N :   -0.214534
   6 C :   -0.305711
   7 C :    0.002571
   8 C :   -0.128965
   9 H :    0.130035
  10 H :    0.142863
  11 H :    0.131528
  12 H :    0.072137
  13 H :    0.144133
  14 H :    0.129991
  15 H :    0.131599
  16 H :    0.133779
  17 H :    0.114606
  18 H :    0.110050
  19 H :    0.137962
  20 H :    0.147152
  21 H :    0.187377
Sum of atomic charges:    0.0000000

LOEWDIN ATOMIC CHARGES
----------------------
   0 C :   -0.280279
   1 C :   -0.261995
   2 C :   -0.281563
   3 C :   -0.251256
   4 C :   -0.208132
   5 N :    0.125680
   6 C :   -0.328401
   7 C :   -0.060022
   8 C :   -0.091709
   9 H :    0.124502
  10 H :    0.130517
  11 H :    0.123480
  12 H :    0.152661
  13 H :    0.131239
  14 H :    0.123508
  15 H :    0.123871
  16 H :    0.129961
  17 H :    0.126751
  18 H :    0.103800
  19 H :    0.118977
  20 H :    0.121903
  21 H :    0.126511

  Mayer bond orders larger than 0.1
B(  0-C ,  1-C ) :   0.9273 B(  0-C ,  9-H ) :   0.9365 B(  0-C , 10-H ) :   0.9313
B(  0-C , 11-H ) :   0.9366 B(  1-C ,  2-C ) :   0.9178 B(  1-C ,  3-C ) :   0.9424
B(  1-C , 12-H ) :   0.9063 B(  2-C , 13-H ) :   0.9283 B(  2-C , 14-H ) :   0.9376
B(  2-C , 15-H ) :   0.9370 B(  3-C ,  4-C ) :   0.8976 B(  3-C ,  5-N ) :   0.7835
B(  3-C ,  7-C ) :   1.1882 B(  3-C ,  8-C ) :  -0.1437 B(  4-C ,  5-N ) :   0.9524
B(  4-C , 16-H ) :   0.9086 B(  4-C , 17-H ) :   0.9115 B(  5-N ,  6-C ) :   0.8785
B(  6-C , 18-H ) :   0.9244 B(  6-C , 19-H ) :   0.9384 B(  6-C , 20-H ) :   0.9334
B(  7-C ,  8-C ) :   2.5562 B(  8-C , 21-H ) :   0.8919

MP2 TOTAL ENERGY:     -366.481516006 Eh
FINAL SINGLE POINT ENERGY      -366.481516006276

DIPOLE MOMENT
-------------
                                X             Y             Z
Electronic contribution:      5.74957       1.58270      -4.28677
Nuclear contribution   :     -6.18669      -1.96152       4.57568
                        -----------------------------------------
Total Dipole Moment    :     -0.43712      -0.37882       0.28890
                        -----------------------------------------
Magnitude (a.u.)       :      0.64656
Magnitude (Debye)      :      1.64343

                             ****ORCA TERMINATED NORMALLY****
TOTAL RUN TIME: 0 days 0 hours 24 minutes 21 seconds 748 msec
