                         Program Version 3.0.3 - RELEASE   -
|  1> ! RI-MP2 RIJK def2-TZVP def2-TZVP/C def2-TZVP/JK TIGHTSCF
|  2> % maxcore 2000
|  3> % mp2 density relaxed end
|  4> *xyz 0 1
|  5>  C       -0.0906436129     1.5529926859     0.0102274953
|  6>  C        0.1503403654     0.0492834286     0.0038579017
|  7>  C        0.8915108044    -0.4447545782    -1.2520126749
|  8>  O        1.2115514918     0.3076281065    -2.1391459833
|  9>  C        1.2026442488    -1.9344164643    -1.2736998804
| 10>  C        1.9514283511    -2.3549053837     0.0044062577
| 11>  C        1.1832758038    -1.9482976175     1.2754764201
| 12>  C        0.8726481536    -0.4584226095     1.2652475332
| 13>  O        1.1786754627     0.2841038763     2.1655341267
| 14>  H        0.8582556287     2.0930227889     0.0202836802
| 15>  H       -0.6405199410     1.8545817395    -0.8834079320
| 16>  H       -0.6538903868     1.8448926265     0.8987388555
| 17>  H       -0.8068879725    -0.4983813827    -0.0063217861
| 18>  H        0.2540446171    -2.4856837218    -1.3360285475
| 19>  H        1.7807280408    -2.1532672644    -2.1737520331
| 20>  H        2.1134500723    -3.4365381798    -0.0002456755
| 21>  H        2.9430966892    -1.8869449093     0.0144962311
| 22>  H        0.2338108137    -2.5000159186     1.3173028507
| 23>  H        1.7475624099    -2.1770710424     2.1817949706
| 24> *
| 25>
| 26>                          ****END OF INPUT****

CARTESIAN COORDINATES (ANGSTROEM)
---------------------------------
  C     -0.090644    1.552993    0.010227
  C      0.150340    0.049283    0.003858
  C      0.891511   -0.444755   -1.252013
  O      1.211551    0.307628   -2.139146
  C      1.202644   -1.934416   -1.273700
  C      1.951428   -2.354905    0.004406
  C      1.183276   -1.948298    1.275476
  C      0.872648   -0.458423    1.265248
  O      1.178675    0.284104    2.165534
  H      0.858256    2.093023    0.020284
  H     -0.640520    1.854582   -0.883408
  H     -0.653890    1.844893    0.898739
  H     -0.806888   -0.498381   -0.006322
  H      0.254045   -2.485684   -1.336029
  H      1.780728   -2.153267   -2.173752
  H      2.113450   -3.436538   -0.000246
  H      2.943097   -1.886945    0.014496
  H      0.233811   -2.500016    1.317303
  H      1.747562   -2.177071    2.181795

 Total Charge           Charge          ....    0
 Multiplicity           Mult            ....    1
 Number of Electrons    NEL             ....   68
 Basis Dimension        Dim             ....  339

ORBITAL ENERGIES
----------------

  NO   OCC          E(Eh)            E(eV)
   0   2.0000     -20.557906      -559.4091
   1   2.0000     -20.557903      -559.4090
   2   2.0000     -11.342630      -308.6487
   3   2.0000     -11.342626      -308.6486
   4   2.0000     -11.260241      -306.4067
   5   2.0000     -11.258936      -306.3712
   6   2.0000     -11.252806      -306.2044
   7   2.0000     -11.252767      -306.2033
   8   2.0000     -11.217708      -305.2494
   9   2.0000      -1.404735       -38.2248
  10   2.0000      -1.399985       -38.0955
  11   2.0000      -1.130615       -30.7656
  12   2.0000      -1.061291       -28.8792
  13   2.0000      -1.002478       -27.2788
  14   2.0000      -0.924578       -25.1591
  15   2.0000      -0.843836       -22.9620
  16   2.0000      -0.785764       -21.3817
  17   2.0000      -0.731420       -19.9029
  18   2.0000      -0.673008       -18.3135
  19   2.0000      -0.671414       -18.2701
  20   2.0000      -0.665196       -18.1009
  21   2.0000      -0.631304       -17.1786
  22   2.0000      -0.627815       -17.0837
  23   2.0000      -0.593777       -16.1575
  24   2.0000      -0.571677       -15.5561
  25   2.0000      -0.548409       -14.9230
  26   2.0000      -0.547553       -14.8997
  27   2.0000      -0.531692       -14.4681
  28   2.0000      -0.517788       -14.0897
  29   2.0000      -0.505247       -13.7485
  30   2.0000      -0.494996       -13.4695
  31   2.0000      -0.494737       -13.4625
  32   2.0000      -0.418760       -11.3950
  33   2.0000      -0.411803       -11.2057
  34   0.0000       0.093865         2.5542
  35   0.0000       0.143016         3.8917
  36   0.0000       0.149782         4.0758
  37   0.0000       0.157400         4.2831
  38   0.0000       0.159804         4.3485

MULLIKEN ATOMIC CHARGES
-----------------------
   0 C :   -0.362291
   1 C :   -0.068097
   2 C :    0.128347
   3 O :   -0.263782
   4 C :   -0.207015
   5 C :   -0.250144
   6 C :   -0.207015
   7 C :    0.128358
   8 O :   -0.263771
   9 H :    0.137876
  10 H :    0.141700
  11 H :    0.141710
  12 H :    0.120931
  13 H :    0.127132
  14 H :    0.144159
  15 H :    0.140950
  16 H :    0.139644
  17 H :    0.127146
  18 H :    0.144162
Sum of atomic charges:   -0.0000000

LOEWDIN ATOMIC CHARGES
----------------------
   0 C :   -0.279054
   1 C :   -0.223109
   2 C :   -0.298894
   3 O :    0.168209
   4 C :   -0.226082
   5 C :   -0.247878
   6 C :   -0.226081
   7 C :   -0.298884
   8 O :    0.168216
   9 H :    0.133868
  10 H :    0.129684
  11 H :    0.129685
  12 H :    0.180075
  13 H :    0.151758
  14 H :    0.149035
  15 H :    0.142485
  16 H :    0.146166
  17 H :    0.151766
  18 H :    0.149035

  Mayer bond orders larger than 0.1
B(  0-C ,  1-C ) :   0.9242 B(  0-C ,  9-H ) :   0.9284 B(  0-C , 10-H ) :   0.9329
B(  0-C , 11-H ) :   0.9329 B(  1-C ,  2-C ) :   0.8566 B(  1-C ,  7-C ) :   0.8565
B(  1-C , 12-H ) :   0.8750 B(  2-C ,  3-O ) :   2.0311 B(  2-C ,  4-C ) :   0.9352
B(  4-C ,  5-C ) :   0.8904 B(  4-C , 13-H ) :   0.9137 B(  4-C , 14-H ) :   0.9148
B(  5-C ,  6-C ) :   0.8904 B(  5-C , 15-H ) :   0.9271 B(  5-C , 16-H ) :   0.9292
B(  6-C ,  7-C ) :   0.9352 B(  6-C , 17-H ) :   0.9137 B(  6-C , 18-H ) :   0.9148
B(  7-C ,  8-O ) :   2.0312

MP2 TOTAL ENERGY:     -422.376442536 Eh
FINAL SINGLE POINT ENERGY      -422.376442536124

DIPOLE MOMENT
-------------
                                X             Y             Z
Electronic contribution:      1.13383       2.44261       0.02193
Nuclear contribution   :     -1.58136      -3.79967      -0.03277
                        -----------------------------------------
Total Dipole Moment    :     -0.44752      -1.35706      -0.01084
                        -----------------------------------------
Magnitude (a.u.)       :      1.42898
Magnitude (Debye)      :      3.63219

                             ****ORCA TERMINATED NORMALLY****
TOTAL RUN TIME: 0 days 0 hours 18 minutes 7 seconds 48 msec
