                         Program Version 3.0.3 - RELEASE   -
|  1> ! RI-MP2 RIJK def2-TZVP def2-TZVP/C def2-TZVP/JK TIGHTSCF
|  2> % maxcore 2000
|  3> % mp2 density relaxed end
|  4> *xyz 0 1
|  5>  C       -0.2874550043     1.5725068606    -0.0421745698
|  6>  C       -0.0149318837     0.0603361375    -0.0345899964
|  7>  C        0.7806227793    -0.4714886529    -1.1976553237
|  8>  C        1.8552307827    -1.1689022331    -0.8324080084
|  9>  C        2.0056669606    -1.2684629332     0.6720963648
| 10>  C        3.3053333944    -0.8670408785     1.1889452386
| 11>  C        4.3808038702    -0.5232355675     1.5996194859
| 12>  C        0.8326917050    -0.3665190736     1.1779466519
| 13>  O        0.6369758709    -0.0532650114     2.3179055358
| 14>  H        0.6438267538     2.1359108850    -0.1537033581
| 15>  H       -0.9518581940     1.8438034798    -0.8677552565
| 16>  H       -0.7578507236     1.8696830085     0.8984699703
| 17>  H       -0.9813812848    -0.4601237712     0.0498097276
| 18>  H        0.4865228816    -0.2891284868    -2.2255233920
| 19>  H        2.5684033494    -1.6320218745    -1.5030015062
| 20>  H        1.7879778207    -2.2907298702     1.0207646305
| 21>  H        5.3280705317    -0.2208842686     1.9722123357
| 22> *
| 23>
| 24>                          ****END OF INPUT****

CARTESIAN COORDINATES (ANGSTROEM)
---------------------------------
  C     -0.287455    1.572507   -0.042175
  C     -0.014932    0.060336   -0.034590
  C      0.780623   -0.471489   -1.197655
  C      1.855231   -1.168902   -0.832408
  C      2.005667   -1.268463    0.672096
  C      3.305333   -0.867041    1.188945
  C      4.380804   -0.523236    1.599619
  C      0.832692   -0.366519    1.177947
  O      0.636976   -0.053265    2.317906
  H      0.643827    2.135911   -0.153703
  H     -0.951858    1.843803   -0.867755
  H     -0.757851    1.869683    0.898470
  H     -0.981381   -0.460124    0.049810
  H      0.486523   -0.289128   -2.225523
  H      2.568403   -1.632022   -1.503002
  H      1.787978   -2.290730    1.020765
  H      5.328071   -0.220884    1.972212

 Total Charge           Charge          ....    0
 Multiplicity           Mult            ....    1
 Number of Electrons    NEL             ....   64
 Basis Dimension        Dim             ....  327

ORBITAL ENERGIES
----------------

  NO   OCC          E(Eh)            E(eV)
   0   2.0000     -20.557450      -559.3967
   1   2.0000     -11.341587      -308.6203
   2   2.0000     -11.278661      -306.9080
   3   2.0000     -11.255990      -306.2911
   4   2.0000     -11.251511      -306.1692
   5   2.0000     -11.248394      -306.0844
   6   2.0000     -11.240299      -305.8641
   7   2.0000     -11.229790      -305.5781
   8   2.0000     -11.228345      -305.5388
   9   2.0000      -1.403854       -38.2008
  10   2.0000      -1.162374       -31.6298
  11   2.0000      -1.068024       -29.0624
  12   2.0000      -1.014793       -27.6139
  13   2.0000      -0.960049       -26.1243
  14   2.0000      -0.897415       -24.4199
  15   2.0000      -0.785911       -21.3857
  16   2.0000      -0.752962       -20.4891
  17   2.0000      -0.719975       -19.5915
  18   2.0000      -0.690288       -18.7837
  19   2.0000      -0.661871       -18.0104
  20   2.0000      -0.629157       -17.1202
  21   2.0000      -0.611372       -16.6363
  22   2.0000      -0.598811       -16.2945
  23   2.0000      -0.569238       -15.4898
  24   2.0000      -0.554753       -15.0956
  25   2.0000      -0.536461       -14.5978
  26   2.0000      -0.511827       -13.9275
  27   2.0000      -0.499837       -13.6012
  28   2.0000      -0.429624       -11.6907
  29   2.0000      -0.393698       -10.7131
  30   2.0000      -0.383439       -10.4339
  31   2.0000      -0.371028       -10.0962
  32   0.0000       0.115935         3.1548
  33   0.0000       0.131507         3.5785
  34   0.0000       0.148317         4.0359
  35   0.0000       0.158257         4.3064
  36   0.0000       0.167647         4.5619

MULLIKEN ATOMIC CHARGES
-----------------------
   0 C :   -0.415028
   1 C :    0.046220
   2 C :   -0.198397
   3 C :   -0.175675
   4 C :   -0.075276
   5 C :   -0.048847
   6 C :   -0.138081
   7 C :    0.084411
   8 O :   -0.240094
   9 H :    0.136196
  10 H :    0.136728
  11 H :    0.154096
  12 H :    0.119430
  13 H :    0.137476
  14 H :    0.142895
  15 H :    0.140480
  16 H :    0.193466
Sum of atomic charges:    0.0000000

LOEWDIN ATOMIC CHARGES
----------------------
   0 C :   -0.277189
   1 C :   -0.230679
   2 C :   -0.128361
   3 C :   -0.114001
   4 C :   -0.193176
   5 C :   -0.081047
   6 C :   -0.086413
   7 C :   -0.233437
   8 O :    0.185294
   9 H :    0.128710
  10 H :    0.125157
  11 H :    0.132531
  12 H :    0.170761
  13 H :    0.142829
  14 H :    0.144248
  15 H :    0.186801
  16 H :    0.127973

  Mayer bond orders larger than 0.1
B(  0-C ,  1-C ) :   0.8896 B(  0-C ,  9-H ) :   0.9302 B(  0-C , 10-H ) :   0.9376
B(  0-C , 11-H ) :   0.9315 B(  1-C ,  2-C ) :   0.9034 B(  1-C ,  4-C ) :  -0.1130
B(  1-C ,  7-C ) :   0.8973 B(  1-C , 12-H ) :   0.8864 B(  2-C ,  3-C ) :   1.7600
B(  2-C , 13-H ) :   0.9149 B(  3-C ,  4-C ) :   0.9112 B(  3-C , 14-H ) :   0.9174
B(  4-C ,  5-C ) :   1.1572 B(  4-C ,  6-C ) :  -0.1012 B(  4-C ,  7-C ) :   0.8645
B(  4-C , 15-H ) :   0.8789 B(  5-C ,  6-C ) :   2.5789 B(  6-C , 16-H ) :   0.8925
B(  7-C ,  8-O ) :   2.0889

MP2 TOTAL ENERGY:     -383.989790242 Eh
FINAL SINGLE POINT ENERGY      -383.989790242405

DIPOLE MOMENT
-------------
                                X             Y             Z
Electronic contribution:      3.05422      -3.35040       3.90267
Nuclear contribution   :     -3.18563       3.16953      -4.89781
                        -----------------------------------------
Total Dipole Moment    :     -0.13141      -0.18087      -0.99513
                        -----------------------------------------
Magnitude (a.u.)       :      1.01994
Magnitude (Debye)      :      2.59248

                             ****ORCA TERMINATED NORMALLY****
TOTAL RUN TIME: 0 days 0 hours 16 minutes 36 seconds 284 msec
