                         Program Version 3.0.3 - RELEASE   -
|  1> ! RI-MP2 RIJK def2-TZVP def2-TZVP/C def2-TZVP/JK TIGHTSCF
|  2> % maxcore 2000
|  3> % mp2 density relaxed end
|  4> *xyz 0 1
|  5>  C       -0.4125465691     0.8890324353     0.5264431261
|  6>  C        0.3023205103    -0.3989506943     0.1206951343
|  7>  N        0.7368587558    -0.3975894677    -1.2861933510
|  8>  C        2.0412412328    -0.0907180998    -1.5783334078
|  9>  O        2.5517933423    -0.0229970832    -2.6810224459
| 10>  C       -0.2798634045    -0.7081787937    -2.2529806517
| 11>  N        0.1260588410    -0.6892303268    -3.5387848692
| 12>  O       -1.4063827575    -0.9648110307    -1.8770853137
| 13>  H        0.2367013840     1.7607732160     0.3961656908
| 14>  H       -1.3127773659     1.0254462059    -0.0760188230
| 15>  H       -0.7066245853     0.8367165215     1.5792796211
| 16>  H        1.1937835671    -0.5579516597     0.7340875172
| 17>  H       -0.3586263721    -1.2556068437     0.2554989962
| 18>  H        2.6268899970     0.0988953802    -0.6618167646
| 19>  H        1.0848321601    -0.4597667835    -3.7684692893
| 20>  H       -0.5684673261    -0.8985282058    -4.2342327895
| 21> *
| 22>
| 23>                          ****END OF INPUT****

CARTESIAN COORDINATES (ANGSTROEM)
---------------------------------
  C     -0.412547    0.889032    0.526443
  C      0.302321   -0.398951    0.120695
  N      0.736859   -0.397589   -1.286193
  C      2.041241   -0.090718   -1.578333
  O      2.551793   -0.022997   -2.681022
  C     -0.279863   -0.708179   -2.252981
  N      0.126059   -0.689230   -3.538785
  O     -1.406383   -0.964811   -1.877085
  H      0.236701    1.760773    0.396166
  H     -1.312777    1.025446   -0.076019
  H     -0.706625    0.836717    1.579280
  H      1.193784   -0.557952    0.734088
  H     -0.358626   -1.255607    0.255499
  H      2.626890    0.098895   -0.661817
  H      1.084832   -0.459767   -3.768469
  H     -0.568467   -0.898528   -4.234233

 Total Charge           Charge          ....    0
 Multiplicity           Mult            ....    1
 Number of Electrons    NEL             ....   62
 Basis Dimension        Dim             ....  296

ORBITAL ENERGIES
----------------

  NO   OCC          E(Eh)            E(eV)
   0   2.0000     -20.557817      -559.4066
   1   2.0000     -20.524333      -558.4955
   2   2.0000     -15.622824      -425.1187
   3   2.0000     -15.580182      -423.9583
   4   2.0000     -11.394167      -310.0510
   5   2.0000     -11.380767      -309.6864
   6   2.0000     -11.282418      -307.0102
   7   2.0000     -11.227660      -305.5201
   8   2.0000      -1.425227       -38.7824
   9   2.0000      -1.399091       -38.0712
  10   2.0000      -1.268389       -34.5146
  11   2.0000      -1.214368       -33.0446
  12   2.0000      -1.033297       -28.1174
  13   2.0000      -0.917721       -24.9725
  14   2.0000      -0.881913       -23.9981
  15   2.0000      -0.791440       -21.5362
  16   2.0000      -0.736444       -20.0397
  17   2.0000      -0.719037       -19.5660
  18   2.0000      -0.687034       -18.6951
  19   2.0000      -0.654923       -17.8214
  20   2.0000      -0.638288       -17.3687
  21   2.0000      -0.616181       -16.7671
  22   2.0000      -0.608947       -16.5703
  23   2.0000      -0.565224       -15.3805
  24   2.0000      -0.553478       -15.0609
  25   2.0000      -0.537700       -14.6316
  26   2.0000      -0.513574       -13.9751
  27   2.0000      -0.468678       -12.7534
  28   2.0000      -0.451106       -12.2752
  29   2.0000      -0.422145       -11.4871
  30   2.0000      -0.416628       -11.3370
  31   0.0000       0.122197         3.3251
  32   0.0000       0.135442         3.6856
  33   0.0000       0.151771         4.1299
  34   0.0000       0.170249         4.6327
  35   0.0000       0.182222         4.9585

MULLIKEN ATOMIC CHARGES
-----------------------
   0 C :   -0.400035
   1 C :   -0.138632
   2 N :   -0.088741
   3 C :    0.168778
   4 O :   -0.377255
   5 C :    0.338613
   6 N :   -0.484494
   7 O :   -0.379574
   8 H :    0.122464
   9 H :    0.163699
  10 H :    0.133062
  11 H :    0.128917
  12 H :    0.148969
  13 H :    0.105460
  14 H :    0.295830
  15 H :    0.262938
Sum of atomic charges:   -0.0000000

LOEWDIN ATOMIC CHARGES
----------------------
   0 C :   -0.312215
   1 C :   -0.270391
   2 N :    0.199975
   3 C :   -0.376900
   4 O :    0.062549
   5 C :   -0.513496
   6 N :    0.001570
   7 O :    0.072696
   8 H :    0.120707
   9 H :    0.131479
  10 H :    0.126744
  11 H :    0.134574
  12 H :    0.145792
  13 H :    0.124183
  14 H :    0.173826
  15 H :    0.178908

  Mayer bond orders larger than 0.1
B(  0-C ,  1-C ) :   0.9224 B(  0-C ,  8-H ) :   0.9300 B(  0-C ,  9-H ) :   0.9361
B(  0-C , 10-H ) :   0.9336 B(  1-C ,  2-N ) :   0.8558 B(  1-C , 11-H ) :   0.9319
B(  1-C , 12-H ) :   0.9206 B(  2-N ,  3-C ) :   1.1254 B(  2-N ,  5-C ) :   0.9510
B(  3-C ,  4-O ) :   1.8164 B(  3-C , 13-H ) :   0.9307 B(  5-C ,  6-N ) :   1.2425
B(  5-C ,  7-O ) :   1.9135 B(  6-N , 14-H ) :   0.8124 B(  6-N , 15-H ) :   0.8598

MP2 TOTAL ENERGY:     -416.470048235 Eh
FINAL SINGLE POINT ENERGY      -416.470048234964

DIPOLE MOMENT
-------------
                                X             Y             Z
Electronic contribution:      1.64568      -2.55743      -6.00541
Nuclear contribution   :     -1.32727       2.71667       6.48213
                        -----------------------------------------
Total Dipole Moment    :      0.31840       0.15924       0.47671
                        -----------------------------------------
Magnitude (a.u.)       :      0.59497
Magnitude (Debye)      :      1.51230

                             ****ORCA TERMINATED NORMALLY****
TOTAL RUN TIME: 0 days 0 hours 10 minutes 31 seconds 226 msec
