                         Program Version 3.0.3 - RELEASE   -
|  1> ! RI-MP2 RIJK def2-TZVP def2-TZVP/C def2-TZVP/JK TIGHTSCF
|  2> % maxcore 2000
|  3> % mp2 density relaxed end
|  4> *xyz 0 1
|  5>  C       -0.0322081842     1.5456212501     0.0188440098
|  6>  C        0.0110814282     0.0084352575     0.0069304383
|  7>  N        0.7949936638    -0.4897929816    -1.1524535831
|  8>  C        1.7484079520    -1.1778615963    -0.6569650182
|  9>  N        1.7873217567    -1.2743439973     0.7253161540
| 10>  C        0.7336886241    -0.5386015178     1.2637480720
| 11>  N        0.3968939576    -0.2986930560     2.4578141540
| 12>  C       -1.3498138114    -0.5435829619    -0.0705885655
| 13>  N       -2.4203863120    -0.9720018556    -0.1343444367
| 14>  H        0.9889576938     1.9343502313     0.0309827486
| 15>  H       -0.5399389677     1.9101465945    -0.8757546666
| 16>  H       -0.5565197821     1.8881210441     0.9131675736
| 17>  H        2.5109908852    -1.6724935074    -1.2496152468
| 18>  H        2.4867316157    -1.7605266944     1.2612735306
| 19>  H        1.0132700704    -0.7398789690     3.1409514459
| 20> *
| 21>
| 22>                          ****END OF INPUT****

CARTESIAN COORDINATES (ANGSTROEM)
---------------------------------
  C     -0.032208    1.545621    0.018844
  C      0.011081    0.008435    0.006930
  N      0.794994   -0.489793   -1.152454
  C      1.748408   -1.177862   -0.656965
  N      1.787322   -1.274344    0.725316
  C      0.733689   -0.538602    1.263748
  N      0.396894   -0.298693    2.457814
  C     -1.349814   -0.543583   -0.070589
  N     -2.420386   -0.972002   -0.134344
  H      0.988958    1.934350    0.030983
  H     -0.539939    1.910147   -0.875755
  H     -0.556520    1.888121    0.913168
  H      2.510991   -1.672494   -1.249615
  H      2.486732   -1.760527    1.261274
  H      1.013270   -0.739879    3.140951

 Total Charge           Charge          ....    0
 Multiplicity           Mult            ....    1
 Number of Electrons    NEL             ....   64
 Basis Dimension        Dim             ....  315

ORBITAL ENERGIES
----------------

  NO   OCC          E(Eh)            E(eV)
   0   2.0000     -15.635629      -425.4671
   1   2.0000     -15.578454      -423.9113
   2   2.0000     -15.569212      -423.6598
   3   2.0000     -15.561151      -423.4405
   4   2.0000     -11.354511      -308.9719
   5   2.0000     -11.352839      -308.9265
   6   2.0000     -11.332195      -308.3647
   7   2.0000     -11.270841      -306.6952
   8   2.0000     -11.244098      -305.9675
   9   2.0000      -1.370142       -37.2835
  10   2.0000      -1.238719       -33.7073
  11   2.0000      -1.219751       -33.1911
  12   2.0000      -1.186729       -32.2925
  13   2.0000      -1.067828       -29.0571
  14   2.0000      -0.941034       -25.6068
  15   2.0000      -0.861254       -23.4359
  16   2.0000      -0.853411       -23.2225
  17   2.0000      -0.763232       -20.7686
  18   2.0000      -0.719284       -19.5727
  19   2.0000      -0.671022       -18.2594
  20   2.0000      -0.652677       -17.7602
  21   2.0000      -0.620983       -16.8978
  22   2.0000      -0.581472       -15.8227
  23   2.0000      -0.561921       -15.2907
  24   2.0000      -0.553615       -15.0646
  25   2.0000      -0.541853       -14.7446
  26   2.0000      -0.497745       -13.5443
  27   2.0000      -0.487501       -13.2656
  28   2.0000      -0.461769       -12.5654
  29   2.0000      -0.457093       -12.4381
  30   2.0000      -0.431658       -11.7460
  31   2.0000      -0.380670       -10.3585
  32   0.0000       0.102043         2.7767
  33   0.0000       0.110255         3.0002
  34   0.0000       0.146917         3.9978
  35   0.0000       0.152678         4.1546
  36   0.0000       0.163244         4.4421

MULLIKEN ATOMIC CHARGES
-----------------------
   0 C :   -0.404692
   1 C :    0.456081
   2 N :   -0.310129
   3 C :    0.073282
   4 N :   -0.305861
   5 C :    0.013192
   6 N :   -0.349481
   7 C :   -0.208466
   8 N :   -0.048241
   9 H :    0.138726
  10 H :    0.159268
  11 H :    0.161568
  12 H :    0.160104
  13 H :    0.249795
  14 H :    0.214852
Sum of atomic charges:    0.0000000

LOEWDIN ATOMIC CHARGES
----------------------
   0 C :   -0.227421
   1 C :   -0.276330
   2 N :    0.124928
   3 C :   -0.274867
   4 N :    0.137767
   5 C :   -0.307560
   6 N :   -0.034104
   7 C :   -0.131268
   8 N :    0.080838
   9 H :    0.133427
  10 H :    0.137928
  11 H :    0.141512
  12 H :    0.139508
  13 H :    0.190019
  14 H :    0.165622

  Mayer bond orders larger than 0.1
B(  0-C ,  1-C ) :   0.8738 B(  0-C ,  9-H ) :   0.9238 B(  0-C , 10-H ) :   0.9330
B(  0-C , 11-H ) :   0.9233 B(  1-C ,  2-N ) :   0.8630 B(  1-C ,  5-C ) :   0.7894
B(  1-C ,  7-C ) :   0.9069 B(  2-N ,  3-C ) :   1.8032 B(  3-C ,  4-N ) :   1.0464
B(  3-C , 12-H ) :   0.9132 B(  4-N ,  5-C ) :   1.0694 B(  4-N , 13-H ) :   0.8637
B(  5-C ,  6-N ) :   2.0967 B(  6-N , 14-H ) :   0.8467 B(  7-C ,  8-N ) :   2.8670

MP2 TOTAL ENERGY:     -412.312729323 Eh
FINAL SINGLE POINT ENERGY      -412.312729322582

DIPOLE MOMENT
-------------
                                X             Y             Z
Electronic contribution:     -1.73875      -3.97066      -0.82502
Nuclear contribution   :      4.28654       3.73311       1.34073
                        -----------------------------------------
Total Dipole Moment    :      2.54779      -0.23755       0.51570
                        -----------------------------------------
Magnitude (a.u.)       :      2.61029
Magnitude (Debye)      :      6.63483

                             ****ORCA TERMINATED NORMALLY****
TOTAL RUN TIME: 0 days 0 hours 16 minutes 13 seconds 292 msec
