                         Program Version 3.0.3 - RELEASE   -
|  1> ! RI-MP2 RIJK def2-TZVP def2-TZVP/C def2-TZVP/JK TIGHTSCF
|  2> % maxcore 2000
|  3> % mp2 density relaxed end
|  4> *xyz 0 1
|  5>  C        0.1248300116     1.3299949673    -0.5429317106
|  6>  C        1.4202555487     1.6152641965     0.2618735283
|  7>  C        1.3718103510     0.1658311699     0.8280992028
|  8>  C       -0.1219737818     0.1008945100     0.3703612634
|  9>  C        2.2861072276    -0.8098806760     0.0778299065
| 10>  C        2.1946062372    -2.1785792729     0.7371217110
| 11>  O        2.5029779704    -2.0954420364     2.1369094135
| 12>  C        2.0978872522    -0.9612047294     2.7556941978
| 13>  N        1.5701286882     0.0804202157     2.2671497857
| 14>  H       -0.6413913948     2.1075044642    -0.5439139062
| 15>  H        0.3268599540     1.0485584212    -1.5800627057
| 16>  H        2.3183462543     1.9000716592    -0.2936723432
| 17>  H        1.2565256245     2.3322434461     1.0693013020
| 18>  H       -0.7828128286     0.3353927634     1.2077640837
| 19>  H       -0.4581815393    -0.8315127513    -0.0944899140
| 20>  H        2.0155304910    -0.8876081765    -0.9806018750
| 21>  H        3.3215766919    -0.4515015308     0.1272266792
| 22>  H        1.1838114289    -2.5950277785     0.6323337692
| 23>  H        2.9051783430    -2.8943682256     0.3174114909
| 24>  H        2.2943729200    -1.0377057360     3.8239712407
| 25> *
| 26>
| 27>                          ****END OF INPUT****

CARTESIAN COORDINATES (ANGSTROEM)
---------------------------------
  C      0.124830    1.329995   -0.542932
  C      1.420256    1.615264    0.261874
  C      1.371810    0.165831    0.828099
  C     -0.121974    0.100895    0.370361
  C      2.286107   -0.809881    0.077830
  C      2.194606   -2.178579    0.737122
  O      2.502978   -2.095442    2.136909
  C      2.097887   -0.961205    2.755694
  N      1.570129    0.080420    2.267150
  H     -0.641391    2.107504   -0.543914
  H      0.326860    1.048558   -1.580063
  H      2.318346    1.900072   -0.293672
  H      1.256526    2.332243    1.069301
  H     -0.782813    0.335393    1.207764
  H     -0.458182   -0.831513   -0.094490
  H      2.015530   -0.887608   -0.980602
  H      3.321577   -0.451502    0.127227
  H      1.183811   -2.595028    0.632334
  H      2.905178   -2.894368    0.317411
  H      2.294373   -1.037706    3.823971

 Total Charge           Charge          ....    0
 Multiplicity           Mult            ....    1
 Number of Electrons    NEL             ....   68
 Basis Dimension        Dim             ....  345

ORBITAL ENERGIES
----------------

  NO   OCC          E(Eh)            E(eV)
   0   2.0000     -20.592791      -560.3583
   1   2.0000     -15.537727      -422.8030
   2   2.0000     -11.327973      -308.2498
   3   2.0000     -11.291679      -307.2622
   4   2.0000     -11.261800      -306.4492
   5   2.0000     -11.231846      -305.6341
   6   2.0000     -11.219752      -305.3050
   7   2.0000     -11.219118      -305.2877
   8   2.0000     -11.214851      -305.1716
   9   2.0000      -1.425304       -38.7845
  10   2.0000      -1.219811       -33.1927
  11   2.0000      -1.120325       -30.4856
  12   2.0000      -1.042336       -28.3634
  13   2.0000      -0.906841       -24.6764
  14   2.0000      -0.896148       -24.3854
  15   2.0000      -0.885105       -24.0849
  16   2.0000      -0.785965       -21.3872
  17   2.0000      -0.715956       -19.4822
  18   2.0000      -0.698437       -19.0054
  19   2.0000      -0.684129       -18.6161
  20   2.0000      -0.652112       -17.7449
  21   2.0000      -0.627341       -17.0708
  22   2.0000      -0.606812       -16.5122
  23   2.0000      -0.577201       -15.7064
  24   2.0000      -0.557599       -15.1730
  25   2.0000      -0.543452       -14.7881
  26   2.0000      -0.527950       -14.3663
  27   2.0000      -0.516340       -14.0503
  28   2.0000      -0.474772       -12.9192
  29   2.0000      -0.468879       -12.7588
  30   2.0000      -0.444166       -12.0864
  31   2.0000      -0.438954       -11.9445
  32   2.0000      -0.396165       -10.7802
  33   2.0000      -0.373974       -10.1764
  34   0.0000       0.134157         3.6506
  35   0.0000       0.157468         4.2849
  36   0.0000       0.166303         4.5253
  37   0.0000       0.169135         4.6024
  38   0.0000       0.173679         4.7261

MULLIKEN ATOMIC CHARGES
-----------------------
   0 C :   -0.238804
   1 C :   -0.234900
   2 C :    0.224050
   3 C :   -0.264482
   4 C :   -0.317071
   5 C :   -0.048958
   6 O :   -0.259690
   7 C :    0.082404
   8 N :   -0.285341
   9 H :    0.116880
  10 H :    0.115811
  11 H :    0.110342
  12 H :    0.125740
  13 H :    0.125712
  14 H :    0.106731
  15 H :    0.130884
  16 H :    0.130701
  17 H :    0.109841
  18 H :    0.134698
  19 H :    0.135450
Sum of atomic charges:   -0.0000000

LOEWDIN ATOMIC CHARGES
----------------------
   0 C :   -0.244436
   1 C :   -0.197377
   2 C :   -0.301333
   3 C :   -0.200217
   4 C :   -0.229521
   5 C :   -0.274881
   6 O :    0.219863
   7 C :   -0.355344
   8 N :    0.108430
   9 H :    0.124327
  10 H :    0.129488
  11 H :    0.125081
  12 H :    0.140804
  13 H :    0.140589
  14 H :    0.123282
  15 H :    0.149773
  16 H :    0.147795
  17 H :    0.129331
  18 H :    0.131437
  19 H :    0.132907

  Mayer bond orders larger than 0.1
B(  0-C ,  1-C ) :   0.9441 B(  0-C ,  3-C ) :   0.9473 B(  0-C ,  9-H ) :   0.9254
B(  0-C , 10-H ) :   0.9247 B(  1-C ,  2-C ) :   0.8569 B(  1-C , 11-H ) :   0.9290
B(  1-C , 12-H ) :   0.9251 B(  2-C ,  3-C ) :   0.8774 B(  2-C ,  4-C ) :   0.9125
B(  2-C ,  8-N ) :   0.9993 B(  3-C , 13-H ) :   0.9219 B(  3-C , 14-H ) :   0.9259
B(  4-C ,  5-C ) :   0.9483 B(  4-C , 15-H ) :   0.9110 B(  4-C , 16-H ) :   0.9279
B(  5-C ,  6-O ) :   0.8684 B(  5-C , 17-H ) :   0.9294 B(  5-C , 18-H ) :   0.9318
B(  6-O ,  7-C ) :   1.0668 B(  7-C ,  8-N ) :   1.8374 B(  7-C , 19-H ) :   0.9275

MP2 TOTAL ENERGY:     -402.462453658 Eh
FINAL SINGLE POINT ENERGY      -402.462453658322

DIPOLE MOMENT
-------------
                                X             Y             Z
Electronic contribution:      2.66573      -2.91503       5.95814
Nuclear contribution   :     -2.63351       2.54516      -6.70605
                        -----------------------------------------
Total Dipole Moment    :      0.03222      -0.36987      -0.74792
                        -----------------------------------------
Magnitude (a.u.)       :      0.83500
Magnitude (Debye)      :      2.12239

                             ****ORCA TERMINATED NORMALLY****
TOTAL RUN TIME: 0 days 0 hours 19 minutes 43 seconds 8 msec
