                         Program Version 3.0.3 - RELEASE   -
|  1> ! RI-MP2 RIJK def2-TZVP def2-TZVP/C def2-TZVP/JK TIGHTSCF
|  2> % maxcore 2000
|  3> % mp2 density relaxed end
|  4> *xyz 0 1
|  5>  O       -0.0989250088     1.3700703483     0.0017124455
|  6>  C       -0.0555036418    -0.0040092503    -0.0152037175
|  7>  C       -1.3488956077    -0.7597622152     0.1867077051
|  8>  N       -1.7092264380    -1.5883174995    -0.9922149784
|  9>  C       -0.8844544314    -2.1652236516     0.1015769276
| 10>  C        0.6080013079    -2.0034276122    -0.1389307004
| 11>  C        0.8108461478    -0.7758432463    -1.0652306933
| 12>  O        2.0439584059    -0.3799935654    -0.3487275740
| 13>  C        1.1147139261    -0.7938874864     0.7101279524
| 14>  H        0.8122543662     1.6630430670    -0.1459726024
| 15>  H       -2.1090441211    -0.4093924773     0.8740978304
| 16>  H       -2.6695664304    -1.9103103664    -0.8809652782
| 17>  H       -1.2836833589    -2.9576794879     0.7232471269
| 18>  H        1.2626966507    -2.8624155125    -0.2663592026
| 19>  H        0.8101769134    -0.7161915991    -2.1512530959
| 20>  H        1.4719750302    -0.7533799452     1.7404821649
| 21> *
| 22>
| 23>                          ****END OF INPUT****

CARTESIAN COORDINATES (ANGSTROEM)
---------------------------------
  O     -0.098925    1.370070    0.001712
  C     -0.055504   -0.004009   -0.015204
  C     -1.348896   -0.759762    0.186708
  N     -1.709226   -1.588317   -0.992215
  C     -0.884454   -2.165224    0.101577
  C      0.608001   -2.003428   -0.138931
  C      0.810846   -0.775843   -1.065231
  O      2.043958   -0.379994   -0.348728
  C      1.114714   -0.793887    0.710128
  H      0.812254    1.663043   -0.145973
  H     -2.109044   -0.409392    0.874098
  H     -2.669566   -1.910310   -0.880965
  H     -1.283683   -2.957679    0.723247
  H      1.262697   -2.862416   -0.266359
  H      0.810177   -0.716192   -2.151253
  H      1.471975   -0.753380    1.740482

 Total Charge           Charge          ....    0
 Multiplicity           Mult            ....    1
 Number of Electrons    NEL             ....   66
 Basis Dimension        Dim             ....  321

ORBITAL ENERGIES
----------------

  NO   OCC          E(Eh)            E(eV)
   0   2.0000     -20.571000      -559.7654
   1   2.0000     -20.556164      -559.3617
   2   2.0000     -15.574307      -423.7985
   3   2.0000     -11.306419      -307.6633
   4   2.0000     -11.300948      -307.5144
   5   2.0000     -11.298123      -307.4376
   6   2.0000     -11.272534      -306.7413
   7   2.0000     -11.269250      -306.6519
   8   2.0000     -11.251915      -306.1802
   9   2.0000      -1.419120       -38.6162
  10   2.0000      -1.369541       -37.2671
  11   2.0000      -1.282545       -34.8998
  12   2.0000      -1.096619       -29.8405
  13   2.0000      -0.946178       -25.7468
  14   2.0000      -0.906998       -24.6807
  15   2.0000      -0.887544       -24.1513
  16   2.0000      -0.793664       -21.5967
  17   2.0000      -0.761583       -20.7237
  18   2.0000      -0.726882       -19.7795
  19   2.0000      -0.707801       -19.2602
  20   2.0000      -0.658176       -17.9099
  21   2.0000      -0.635518       -17.2933
  22   2.0000      -0.596530       -16.2324
  23   2.0000      -0.568111       -15.4591
  24   2.0000      -0.553724       -15.0676
  25   2.0000      -0.548045       -14.9131
  26   2.0000      -0.519761       -14.1434
  27   2.0000      -0.503745       -13.7076
  28   2.0000      -0.483878       -13.1670
  29   2.0000      -0.453154       -12.3310
  30   2.0000      -0.411979       -11.2105
  31   2.0000      -0.404147       -10.9974
  32   2.0000      -0.380806       -10.3623
  33   0.0000       0.133022         3.6197
  34   0.0000       0.158432         4.3111
  35   0.0000       0.160573         4.3694
  36   0.0000       0.170820         4.6482
  37   0.0000       0.193380         5.2621

MULLIKEN ATOMIC CHARGES
-----------------------
   0 O :   -0.459232
   1 C :    0.303588
   2 C :   -0.136230
   3 N :   -0.365450
   4 C :   -0.121833
   5 C :   -0.027019
   6 C :   -0.025665
   7 O :   -0.334222
   8 C :   -0.063920
   9 H :    0.334811
  10 H :    0.134451
  11 H :    0.217194
  12 H :    0.134239
  13 H :    0.140681
  14 H :    0.137677
  15 H :    0.130929
Sum of atomic charges:    0.0000000

LOEWDIN ATOMIC CHARGES
----------------------
   0 O :    0.044849
   1 C :   -0.313560
   2 C :   -0.196908
   3 N :    0.014689
   4 C :   -0.218292
   5 C :   -0.147677
   6 C :   -0.167570
   7 O :    0.116496
   8 C :   -0.174343
   9 H :    0.195104
  10 H :    0.140920
  11 H :    0.169730
  12 H :    0.136421
  13 H :    0.144846
  14 H :    0.131110
  15 H :    0.124187

  Mayer bond orders larger than 0.1
B(  0-O ,  1-C ) :   1.0398 B(  0-O ,  9-H ) :   0.8132 B(  1-C ,  2-C ) :   0.8958
B(  1-C ,  6-C ) :   0.9003 B(  1-C ,  8-C ) :   0.9089 B(  2-C ,  3-N ) :   1.0204
B(  2-C ,  4-C ) :   0.9481 B(  2-C , 10-H ) :   0.9239 B(  3-N ,  4-C ) :   1.0080
B(  3-N , 11-H ) :   0.8756 B(  4-C ,  5-C ) :   0.8767 B(  4-C , 12-H ) :   0.9197
B(  5-C ,  6-C ) :   0.9061 B(  5-C ,  8-C ) :   0.8936 B(  5-C , 13-H ) :   0.8972
B(  6-C ,  7-O ) :   0.8904 B(  6-C , 14-H ) :   0.8633 B(  7-O ,  8-C ) :   0.8960
B(  8-C , 15-H ) :   0.8911

MP2 TOTAL ENERGY:     -437.070804867 Eh
FINAL SINGLE POINT ENERGY      -437.070804866514

DIPOLE MOMENT
-------------
                                X             Y             Z
Electronic contribution:      1.50304       1.88579      -0.44563
Nuclear contribution   :     -2.02353      -2.56763       1.06126
                        -----------------------------------------
Total Dipole Moment    :     -0.52048      -0.68184       0.61563
                        -----------------------------------------
Magnitude (a.u.)       :      1.05585
Magnitude (Debye)      :      2.68375

                             ****ORCA TERMINATED NORMALLY****
TOTAL RUN TIME: 0 days 0 hours 17 minutes 7 seconds 826 msec
