                         Program Version 3.0.3 - RELEASE   -
|  1> ! RI-MP2 RIJK def2-TZVP def2-TZVP/C def2-TZVP/JK TIGHTSCF
|  2> % maxcore 2000
|  3> % mp2 density relaxed end
|  4> *xyz 0 1
|  5>  C       -0.0882465811     1.3853585644     0.0353449564
|  6>  O        0.0253313139    -0.0439862656    -0.0385235163
|  7>  C        0.6275233613    -0.5197021650    -1.1415989916
|  8>  O        1.0702114697     0.1629424520    -2.0293306394
|  9>  C        0.6684308481    -2.0360746486    -1.1036968652
| 10>  C       -0.6411635391    -2.7504594432    -1.5756905870
| 11>  C        0.2101682621    -3.2271867750    -2.7798721152
| 12>  O        0.0092178595    -3.8418886231    -3.7880561639
| 13>  N        1.3438815831    -2.6477283402    -2.2422208864
| 14>  H        0.9007588767     1.8495013317     0.0171635706
| 15>  H       -0.6727594568     1.7677965130    -0.8049221502
| 16>  H       -0.5921166198     1.5937401616     0.9787266243
| 17>  H        1.0350136870    -2.3651909412    -0.1267327081
| 18>  H       -1.0059282102    -3.5402238499    -0.9182570236
| 19>  H       -1.4627229929    -2.0871102240    -1.8500555589
| 20>  H        2.1922515485    -2.3506583970    -2.7031534053
| 21> *
| 22>
| 23>                          ****END OF INPUT****

CARTESIAN COORDINATES (ANGSTROEM)
---------------------------------
  C     -0.088247    1.385359    0.035345
  O      0.025331   -0.043986   -0.038524
  C      0.627523   -0.519702   -1.141599
  O      1.070211    0.162942   -2.029331
  C      0.668431   -2.036075   -1.103697
  C     -0.641164   -2.750459   -1.575691
  C      0.210168   -3.227187   -2.779872
  O      0.009218   -3.841889   -3.788056
  N      1.343882   -2.647728   -2.242221
  H      0.900759    1.849501    0.017164
  H     -0.672759    1.767797   -0.804922
  H     -0.592117    1.593740    0.978727
  H      1.035014   -2.365191   -0.126733
  H     -1.005928   -3.540224   -0.918257
  H     -1.462723   -2.087110   -1.850056
  H      2.192252   -2.350658   -2.703153

 Total Charge           Charge          ....    0
 Multiplicity           Mult            ....    1
 Number of Electrons    NEL             ....   68
 Basis Dimension        Dim             ....  321

ORBITAL ENERGIES
----------------

  NO   OCC          E(Eh)            E(eV)
   0   2.0000     -20.621560      -561.1412
   1   2.0000     -20.563244      -559.5543
   2   2.0000     -20.535415      -558.7970
   3   2.0000     -15.592954      -424.3059
   4   2.0000     -11.395617      -310.0905
   5   2.0000     -11.361704      -309.1677
   6   2.0000     -11.308306      -307.7146
   7   2.0000     -11.300051      -307.4900
   8   2.0000     -11.267381      -306.6010
   9   2.0000      -1.480135       -40.2765
  10   2.0000      -1.398403       -38.0525
  11   2.0000      -1.380077       -37.5538
  12   2.0000      -1.281977       -34.8844
  13   2.0000      -1.040481       -28.3129
  14   2.0000      -0.998030       -27.1578
  15   2.0000      -0.929288       -25.2872
  16   2.0000      -0.798966       -21.7410
  17   2.0000      -0.791833       -21.5469
  18   2.0000      -0.738058       -20.0836
  19   2.0000      -0.707627       -19.2555
  20   2.0000      -0.694031       -18.8855
  21   2.0000      -0.672327       -18.2950
  22   2.0000      -0.658810       -17.9271
  23   2.0000      -0.633573       -17.2404
  24   2.0000      -0.588083       -16.0026
  25   2.0000      -0.576473       -15.6866
  26   2.0000      -0.565643       -15.3919
  27   2.0000      -0.547795       -14.9063
  28   2.0000      -0.545141       -14.8340
  29   2.0000      -0.523435       -14.2434
  30   2.0000      -0.481957       -13.1147
  31   2.0000      -0.471268       -12.8239
  32   2.0000      -0.430045       -11.7021
  33   2.0000      -0.411801       -11.2057
  34   0.0000       0.125594         3.4176
  35   0.0000       0.138930         3.7805
  36   0.0000       0.155828         4.2403
  37   0.0000       0.159740         4.3467
  38   0.0000       0.174343         4.7441

MULLIKEN ATOMIC CHARGES
-----------------------
   0 C :   -0.221373
   1 O :   -0.256613
   2 C :    0.222671
   3 O :   -0.318329
   4 C :    0.118267
   5 C :   -0.249668
   6 C :    0.213493
   7 O :   -0.299069
   8 N :   -0.320382
   9 H :    0.144174
  10 H :    0.144462
  11 H :    0.149306
  12 H :    0.137198
  13 H :    0.143530
  14 H :    0.142501
  15 H :    0.249832
Sum of atomic charges:   -0.0000000

LOEWDIN ATOMIC CHARGES
----------------------
   0 C :   -0.302616
   1 O :    0.234956
   2 C :   -0.477772
   3 O :    0.132949
   4 C :   -0.222263
   5 C :   -0.166146
   6 C :   -0.432939
   7 O :    0.117047
   8 N :    0.146999
   9 H :    0.115654
  10 H :    0.115749
  11 H :    0.116531
  12 H :    0.152663
  13 H :    0.143156
  14 H :    0.146942
  15 H :    0.179090

  Mayer bond orders larger than 0.1
B(  0-C ,  1-O ) :   0.8346 B(  0-C ,  9-H ) :   0.9395 B(  0-C , 10-H ) :   0.9379
B(  0-C , 11-H ) :   0.9330 B(  1-O ,  2-C ) :   1.1325 B(  2-C ,  3-O ) :   1.9674
B(  2-C ,  4-C ) :   0.9259 B(  4-C ,  5-C ) :   0.8780 B(  4-C ,  8-N ) :   0.9210
B(  4-C , 12-H ) :   0.9119 B(  5-C ,  6-C ) :   0.8986 B(  5-C , 13-H ) :   0.9101
B(  5-C , 14-H ) :   0.8973 B(  6-C ,  7-O ) :   2.0311 B(  6-C ,  8-N ) :   1.1353
B(  8-N , 15-H ) :   0.8524

MP2 TOTAL ENERGY:     -474.317340159 Eh
FINAL SINGLE POINT ENERGY      -474.317340159072

DIPOLE MOMENT
-------------
                                X             Y             Z
Electronic contribution:      1.97871      -3.84177      -3.96545
Nuclear contribution   :     -1.97520       4.73398       5.56003
                        -----------------------------------------
Total Dipole Moment    :      0.00351       0.89220       1.59458
                        -----------------------------------------
Magnitude (a.u.)       :      1.82722
Magnitude (Debye)      :      4.64442

                             ****ORCA TERMINATED NORMALLY****
TOTAL RUN TIME: 0 days 0 hours 13 minutes 29 seconds 506 msec
