                         Program Version 3.0.3 - RELEASE   -
|  1> ! RI-MP2 RIJK def2-TZVP def2-TZVP/C def2-TZVP/JK TIGHTSCF
|  2> % maxcore 2000
|  3> % mp2 density relaxed end
|  4> *xyz 0 1
|  5>  N       -0.0106967067    -1.1244892322     0.3842590494
|  6>  C        0.0119813548     0.0159199248     0.1952988301
|  7>  C        0.0267170774     1.4288289244    -0.0921033122
|  8>  C       -0.8326372222     1.9433334203    -1.2461699513
|  9>  C       -0.2748868199     3.3549056160    -1.5446036348
| 10>  C        1.2122313672     3.3074330813    -1.1192906933
| 11>  C        1.2658561934     2.2730717434    -0.0081227443
| 12>  N        0.2643357218     2.3234617794     1.0568178195
| 13>  H       -0.6992880296     1.2760293017    -2.1044150699
| 14>  H       -1.8994303724     1.9485472077    -1.0026225449
| 15>  H       -0.3976210166     3.6292434704    -2.5943432428
| 16>  H       -0.8156705020     4.1099574804    -0.9656217798
| 17>  H        1.8465402023     2.9670572869    -1.9458145183
| 18>  H        1.5910710393     4.2848654946    -0.8031496909
| 19>  H        2.2202238159     1.8498577796     0.2883743816
| 20>  H       -0.3256439925     3.1501574213     0.9929065719
| 21> *
| 22>
| 23>                          ****END OF INPUT****

CARTESIAN COORDINATES (ANGSTROEM)
---------------------------------
  N     -0.010697   -1.124489    0.384259
  C      0.011981    0.015920    0.195299
  C      0.026717    1.428829   -0.092103
  C     -0.832637    1.943333   -1.246170
  C     -0.274887    3.354906   -1.544604
  C      1.212231    3.307433   -1.119291
  C      1.265856    2.273072   -0.008123
  N      0.264336    2.323462    1.056818
  H     -0.699288    1.276029   -2.104415
  H     -1.899430    1.948547   -1.002623
  H     -0.397621    3.629243   -2.594343
  H     -0.815671    4.109957   -0.965622
  H      1.846540    2.967057   -1.945815
  H      1.591071    4.284865   -0.803150
  H      2.220224    1.849858    0.288374
  H     -0.325644    3.150157    0.992907

 Total Charge           Charge          ....    0
 Multiplicity           Mult            ....    1
 Number of Electrons    NEL             ....   58
 Basis Dimension        Dim             ....  296

ORBITAL ENERGIES
----------------

  NO   OCC          E(Eh)            E(eV)
   0   2.0000     -15.587647      -424.1615
   1   2.0000     -15.567828      -423.6221
   2   2.0000     -11.312333      -307.8242
   3   2.0000     -11.289763      -307.2101
   4   2.0000     -11.270531      -306.6867
   5   2.0000     -11.257466      -306.3312
   6   2.0000     -11.252675      -306.2009
   7   2.0000     -11.251739      -306.1754
   8   2.0000      -1.309535       -35.6343
   9   2.0000      -1.211448       -32.9652
  10   2.0000      -1.095531       -29.8109
  11   2.0000      -1.011514       -27.5247
  12   2.0000      -0.947944       -25.7949
  13   2.0000      -0.845700       -23.0127
  14   2.0000      -0.819602       -22.3025
  15   2.0000      -0.735297       -20.0084
  16   2.0000      -0.678424       -18.4609
  17   2.0000      -0.659322       -17.9411
  18   2.0000      -0.609831       -16.5944
  19   2.0000      -0.577080       -15.7031
  20   2.0000      -0.551090       -14.9959
  21   2.0000      -0.543591       -14.7919
  22   2.0000      -0.529012       -14.3952
  23   2.0000      -0.518890       -14.1197
  24   2.0000      -0.503914       -13.7122
  25   2.0000      -0.493460       -13.4277
  26   2.0000      -0.453290       -12.3347
  27   2.0000      -0.445759       -12.1297
  28   2.0000      -0.405478       -11.0336
  29   0.0000       0.115214         3.1351
  30   0.0000       0.139633         3.7996
  31   0.0000       0.153656         4.1812
  32   0.0000       0.167580         4.5601
  33   0.0000       0.174570         4.7503

MULLIKEN ATOMIC CHARGES
-----------------------
   0 N :   -0.048980
   1 C :   -0.236064
   2 C :    0.231217
   3 C :   -0.212157
   4 C :   -0.311731
   5 C :   -0.180803
   6 C :   -0.088359
   7 N :   -0.334329
   8 H :    0.136074
   9 H :    0.140321
  10 H :    0.142724
  11 H :    0.136516
  12 H :    0.124315
  13 H :    0.133683
  14 H :    0.145549
  15 H :    0.222024
Sum of atomic charges:    0.0000000

LOEWDIN ATOMIC CHARGES
----------------------
   0 N :    0.070428
   1 C :   -0.145969
   2 C :   -0.274010
   3 C :   -0.198739
   4 C :   -0.249183
   5 C :   -0.237233
   6 C :   -0.209247
   7 N :    0.065842
   8 H :    0.151968
   9 H :    0.144362
  10 H :    0.140011
  11 H :    0.134522
  12 H :    0.147124
  13 H :    0.141001
  14 H :    0.147649
  15 H :    0.171473

  Mayer bond orders larger than 0.1
B(  0-N ,  1-C ) :   2.8892 B(  1-C ,  2-C ) :   0.8867 B(  2-C ,  3-C ) :   0.9314
B(  2-C ,  6-C ) :   0.8440 B(  2-C ,  7-N ) :   0.8907 B(  3-C ,  4-C ) :   0.9045
B(  3-C ,  8-H ) :   0.9144 B(  3-C ,  9-H ) :   0.9294 B(  4-C ,  5-C ) :   0.9151
B(  4-C , 10-H ) :   0.9274 B(  4-C , 11-H ) :   0.9467 B(  5-C ,  6-C ) :   0.9300
B(  5-C , 12-H ) :   0.9116 B(  5-C , 13-H ) :   0.9282 B(  6-C ,  7-N ) :   0.9509
B(  6-C , 14-H ) :   0.9157 B(  7-N , 15-H ) :   0.8612

MP2 TOTAL ENERGY:     -342.188391706 Eh
FINAL SINGLE POINT ENERGY      -342.188391706265

DIPOLE MOMENT
-------------
                                X             Y             Z
Electronic contribution:      0.09857      -6.83388       4.22894
Nuclear contribution   :     -0.10230       8.70552      -5.27207
                        -----------------------------------------
Total Dipole Moment    :     -0.00373       1.87164      -1.04313
                        -----------------------------------------
Magnitude (a.u.)       :      2.14270
Magnitude (Debye)      :      5.44631

                             ****ORCA TERMINATED NORMALLY****
TOTAL RUN TIME: 0 days 0 hours 12 minutes 53 seconds 824 msec
