                         Program Version 3.0.3 - RELEASE   -
|  1> ! RI-MP2 RIJK def2-TZVP def2-TZVP/C def2-TZVP/JK TIGHTSCF
|  2> % maxcore 2000
|  3> % mp2 density relaxed end
|  4> *xyz 0 1
|  5>  O       -0.2298166851     0.0227780600     0.1270006313
|  6>  C       -0.0582573418     1.2109605001     0.0329239057
|  7>  C        1.2584417420     1.8694795890     0.0010126294
|  8>  C        1.4449309836     3.3595636495     0.3598154942
|  9>  C        1.7653715515     2.9133479921    -1.0157574967
| 10>  N        3.0321040398     2.1904506966    -1.0953466103
| 11>  C        2.6605401921     1.2583142132    -0.1055913385
| 12>  O        3.2643333271     0.3761005325     0.4244550787
| 13>  H       -0.9164447170     1.9195454096    -0.0456693228
| 14>  H        0.5135730802     3.9036687167     0.4974144917
| 15>  H        2.2385210352     3.6283286779     1.0499591943
| 16>  H        1.2555953655     3.2391254098    -1.9128741391
| 17>  H        3.9399557269     2.6403530629    -1.1292121379
| 18> *
| 19>
| 20>                          ****END OF INPUT****

CARTESIAN COORDINATES (ANGSTROEM)
---------------------------------
  O     -0.229817    0.022778    0.127001
  C     -0.058257    1.210961    0.032924
  C      1.258442    1.869480    0.001013
  C      1.444931    3.359564    0.359815
  C      1.765372    2.913348   -1.015757
  N      3.032104    2.190451   -1.095347
  C      2.660540    1.258314   -0.105591
  O      3.264333    0.376101    0.424455
  H     -0.916445    1.919545   -0.045669
  H      0.513573    3.903669    0.497414
  H      2.238521    3.628329    1.049959
  H      1.255595    3.239125   -1.912874
  H      3.939956    2.640353   -1.129212

 Total Charge           Charge          ....    0
 Multiplicity           Mult            ....    1
 Number of Electrons    NEL             ....   58
 Basis Dimension        Dim             ....  278

ORBITAL ENERGIES
----------------

  NO   OCC          E(Eh)            E(eV)
   0   2.0000     -20.565598      -559.6184
   1   2.0000     -20.551240      -559.2277
   2   2.0000     -15.602441      -424.5640
   3   2.0000     -11.375712      -309.5489
   4   2.0000     -11.351177      -308.8812
   5   2.0000     -11.320391      -308.0435
   6   2.0000     -11.289805      -307.2112
   7   2.0000     -11.284586      -307.0692
   8   2.0000      -1.415256       -38.5111
   9   2.0000      -1.404085       -38.2071
  10   2.0000      -1.311652       -35.6919
  11   2.0000      -1.129597       -30.7379
  12   2.0000      -0.955688       -26.0056
  13   2.0000      -0.885223       -24.0881
  14   2.0000      -0.866297       -23.5731
  15   2.0000      -0.746321       -20.3084
  16   2.0000      -0.717194       -19.5158
  17   2.0000      -0.703030       -19.1304
  18   2.0000      -0.681022       -18.5316
  19   2.0000      -0.654370       -17.8063
  20   2.0000      -0.615410       -16.7462
  21   2.0000      -0.593144       -16.1403
  22   2.0000      -0.573250       -15.5989
  23   2.0000      -0.555118       -15.1055
  24   2.0000      -0.532269       -14.4838
  25   2.0000      -0.461362       -12.5543
  26   2.0000      -0.437928       -11.9166
  27   2.0000      -0.428211       -11.6522
  28   2.0000      -0.407961       -11.1012
  29   0.0000       0.109225         2.9722
  30   0.0000       0.129348         3.5197
  31   0.0000       0.131550         3.5797
  32   0.0000       0.151518         4.1230
  33   0.0000       0.163476         4.4484

MULLIKEN ATOMIC CHARGES
-----------------------
   0 O :   -0.242686
   1 C :    0.029796
   2 C :    0.035736
   3 C :   -0.239196
   4 C :   -0.022725
   5 N :   -0.319739
   6 C :    0.230889
   7 O :   -0.258811
   8 H :    0.073142
   9 H :    0.148174
  10 H :    0.164072
  11 H :    0.160744
  12 H :    0.240605
Sum of atomic charges:   -0.0000000

LOEWDIN ATOMIC CHARGES
----------------------
   0 O :    0.151596
   1 C :   -0.279167
   2 C :   -0.152678
   3 C :   -0.156701
   4 C :   -0.187663
   5 N :    0.115096
   6 C :   -0.375216
   7 O :    0.155899
   8 H :    0.117346
   9 H :    0.147848
  10 H :    0.144398
  11 H :    0.143867
  12 H :    0.175375

  Mayer bond orders larger than 0.1
B(  0-O ,  1-C ) :   2.0331 B(  1-C ,  2-C ) :   0.8637 B(  1-C ,  8-H ) :   0.9623
B(  2-C ,  3-C ) :   0.8031 B(  2-C ,  4-C ) :   0.7924 B(  2-C ,  6-C ) :   0.8087
B(  3-C ,  4-C ) :   0.9098 B(  3-C ,  9-H ) :   0.9142 B(  3-C , 10-H ) :   0.9128
B(  4-C ,  5-N ) :   0.9643 B(  4-C , 11-H ) :   0.9110 B(  5-N ,  6-C ) :   1.1092
B(  5-N , 12-H ) :   0.8519 B(  6-C ,  7-O ) :   2.0515

MP2 TOTAL ENERGY:     -397.937469429 Eh
FINAL SINGLE POINT ENERGY      -397.937469428663

DIPOLE MOMENT
-------------
                                X             Y             Z
Electronic contribution:      1.01283      -4.42437       0.29004
Nuclear contribution   :     -1.12796       6.74545      -0.72789
                        -----------------------------------------
Total Dipole Moment    :     -0.11513       2.32108      -0.43785
                        -----------------------------------------
Magnitude (a.u.)       :      2.36483
Magnitude (Debye)      :      6.01091

                             ****ORCA TERMINATED NORMALLY****
TOTAL RUN TIME: 0 days 0 hours 10 minutes 4 seconds 749 msec
