                         Program Version 3.0.3 - RELEASE   -
|  1> ! RI-MP2 RIJK def2-TZVP def2-TZVP/C def2-TZVP/JK TIGHTSCF
|  2> % maxcore 2000
|  3> % mp2 density relaxed end
|  4> *xyz 0 1
|  5>  C        0.2779953116     1.4708300637     0.1286585238
|  6>  C        0.0039641240    -0.0092579642    -0.0387000461
|  7>  C        0.7009609928    -0.6674439766    -1.2998858741
|  8>  C        1.4579662095    -1.7690353742    -0.6255702583
|  9>  C        1.2689574226    -1.6667039038     0.6967326984
| 10>  O        1.9538516349    -2.6068531027     1.3620010084
| 11>  C        2.5784038363    -3.2869272041     0.3173711995
| 12>  N        2.3201560707    -2.8296112509    -0.8657089998
| 13>  O        0.4935972293    -0.7037068675     1.1931918797
| 14>  H        1.3550447285     1.6582614121     0.1758430193
| 15>  H       -0.1311771718     2.0223916491    -0.7240059367
| 16>  H       -0.1835192656     1.8529025203     1.0429225024
| 17>  H       -1.0710804814    -0.2069567240    -0.0561032342
| 18>  H       -0.0493464154    -1.0047188612    -2.0224905686
| 19>  H        1.3430064287     0.0610429161    -1.8104438372
| 20>  H        3.1999552753    -4.1160886621     0.6102539835
| 21> *
| 22>
| 23>                          ****END OF INPUT****

CARTESIAN COORDINATES (ANGSTROEM)
---------------------------------
  C      0.277995    1.470830    0.128659
  C      0.003964   -0.009258   -0.038700
  C      0.700961   -0.667444   -1.299886
  C      1.457966   -1.769035   -0.625570
  C      1.268957   -1.666704    0.696733
  O      1.953852   -2.606853    1.362001
  C      2.578404   -3.286927    0.317371
  N      2.320156   -2.829611   -0.865709
  O      0.493597   -0.703707    1.193192
  H      1.355045    1.658261    0.175843
  H     -0.131177    2.022392   -0.724006
  H     -0.183519    1.852903    1.042923
  H     -1.071080   -0.206957   -0.056103
  H     -0.049346   -1.004719   -2.022491
  H      1.343006    0.061043   -1.810444
  H      3.199955   -4.116089    0.610254

 Total Charge           Charge          ....    0
 Multiplicity           Mult            ....    1
 Number of Electrons    NEL             ....   66
 Basis Dimension        Dim             ....  321

ORBITAL ENERGIES
----------------

  NO   OCC          E(Eh)            E(eV)
   0   2.0000     -20.644484      -561.7650
   1   2.0000     -20.600174      -560.5592
   2   2.0000     -15.576511      -423.8584
   3   2.0000     -11.341384      -308.6147
   4   2.0000     -11.330270      -308.3123
   5   2.0000     -11.314034      -307.8705
   6   2.0000     -11.253320      -306.2184
   7   2.0000     -11.238560      -305.8168
   8   2.0000     -11.233167      -305.6700
   9   2.0000      -1.498539       -40.7773
  10   2.0000      -1.417458       -38.5710
  11   2.0000      -1.239579       -33.7307
  12   2.0000      -1.078297       -29.3420
  13   2.0000      -1.039940       -28.2982
  14   2.0000      -0.942536       -25.6477
  15   2.0000      -0.842605       -22.9284
  16   2.0000      -0.834342       -22.7036
  17   2.0000      -0.792307       -21.5598
  18   2.0000      -0.715542       -19.4709
  19   2.0000      -0.698696       -19.0125
  20   2.0000      -0.662093       -18.0165
  21   2.0000      -0.656843       -17.8736
  22   2.0000      -0.625675       -17.0255
  23   2.0000      -0.583490       -15.8776
  24   2.0000      -0.575988       -15.6734
  25   2.0000      -0.564316       -15.3558
  26   2.0000      -0.547241       -14.8912
  27   2.0000      -0.539895       -14.6913
  28   2.0000      -0.500783       -13.6270
  29   2.0000      -0.489597       -13.3226
  30   2.0000      -0.457713       -12.4550
  31   2.0000      -0.454937       -12.3795
  32   2.0000      -0.303714        -8.2645
  33   0.0000       0.130745         3.5578
  34   0.0000       0.148965         4.0535
  35   0.0000       0.165408         4.5010
  36   0.0000       0.174818         4.7570
  37   0.0000       0.180541         4.9128

MULLIKEN ATOMIC CHARGES
-----------------------
   0 C :   -0.412603
   1 C :    0.128503
   2 C :   -0.228886
   3 C :   -0.043273
   4 C :    0.272438
   5 O :   -0.209875
   6 C :    0.084571
   7 N :   -0.267464
   8 O :   -0.284384
   9 H :    0.140253
  10 H :    0.135922
  11 H :    0.147464
  12 H :    0.114446
  13 H :    0.135571
  14 H :    0.129737
  15 H :    0.157581
Sum of atomic charges:   -0.0000000

LOEWDIN ATOMIC CHARGES
----------------------
   0 C :   -0.293470
   1 C :   -0.217605
   2 C :   -0.189481
   3 C :   -0.266286
   4 C :   -0.393085
   5 O :    0.342609
   6 C :   -0.302219
   7 N :    0.120406
   8 O :    0.248894
   9 H :    0.130966
  10 H :    0.131945
  11 H :    0.130245
  12 H :    0.143014
  13 H :    0.141214
  14 H :    0.142368
  15 H :    0.130485

  Mayer bond orders larger than 0.1
B(  0-C ,  1-C ) :   0.9367 B(  0-C ,  9-H ) :   0.9292 B(  0-C , 10-H ) :   0.9285
B(  0-C , 11-H ) :   0.9343 B(  1-C ,  2-C ) :   0.9313 B(  1-C ,  8-O ) :   0.7746
B(  1-C , 12-H ) :   0.9303 B(  2-C ,  3-C ) :   0.9519 B(  2-C , 13-H ) :   0.9168
B(  2-C , 14-H ) :   0.9124 B(  3-C ,  4-C ) :   1.4994 B(  3-C ,  7-N ) :   1.1908
B(  4-C ,  5-O ) :   1.0977 B(  4-C ,  8-O ) :   1.1186 B(  5-O ,  6-C ) :   0.9972
B(  6-C ,  7-N ) :   1.6599 B(  6-C , 15-H ) :   0.9303

MP2 TOTAL ENERGY:     -437.176301699 Eh
FINAL SINGLE POINT ENERGY      -437.176301699105

DIPOLE MOMENT
-------------
                                X             Y             Z
Electronic contribution:      3.30736      -8.13398       3.32693
Nuclear contribution   :     -3.76754       8.81491      -3.42748
                        -----------------------------------------
Total Dipole Moment    :     -0.46019       0.68092      -0.10055
                        -----------------------------------------
Magnitude (a.u.)       :      0.82797
Magnitude (Debye)      :      2.10454

                             ****ORCA TERMINATED NORMALLY****
TOTAL RUN TIME: 0 days 0 hours 15 minutes 55 seconds 251 msec
