                         Program Version 3.0.3 - RELEASE   -
|  1> ! RI-MP2 RIJK def2-TZVP def2-TZVP/C def2-TZVP/JK TIGHTSCF
|  2> % maxcore 2000
|  3> % mp2 density relaxed end
|  4> *xyz 0 1
|  5>  O        0.0144945161     1.4960213358     0.0605965494
|  6>  C        0.0131881588     0.0958713270    -0.1543454306
|  7>  C       -1.3200640543    -0.5050415564    -0.0983756608
|  8>  C       -2.4221267365    -0.9903970588    -0.0253368123
|  9>  C       -3.7271739747    -1.6250146179     0.0504423872
| 10>  O       -3.8830757265    -2.8116474970     0.1849995957
| 11>  N       -4.7684919056    -0.6890999794    -0.0535650517
| 12>  C       -6.1408925346    -0.9294865242    -0.0033236888
| 13>  O       -6.6752238848    -1.9909182358     0.1509163549
| 14>  H       -0.3148088299     1.6590472527     0.9508023789
| 15>  H        0.4355590808    -0.0591144101    -1.1534297100
| 16>  H        0.6723949333    -0.4309370376     0.5526305622
| 17>  H       -4.4866784167     0.2716162455    -0.1890966641
| 18>  H       -6.6934429255     0.0240074463    -0.1274068600
| 19> *
| 20>
| 21>                          ****END OF INPUT****

CARTESIAN COORDINATES (ANGSTROEM)
---------------------------------
  O      0.014495    1.496021    0.060597
  C      0.013188    0.095871   -0.154345
  C     -1.320064   -0.505042   -0.098376
  C     -2.422127   -0.990397   -0.025337
  C     -3.727174   -1.625015    0.050442
  O     -3.883076   -2.811647    0.185000
  N     -4.768492   -0.689100   -0.053565
  C     -6.140893   -0.929487   -0.003324
  O     -6.675224   -1.990918    0.150916
  H     -0.314809    1.659047    0.950802
  H      0.435559   -0.059114   -1.153430
  H      0.672395   -0.430937    0.552631
  H     -4.486678    0.271616   -0.189097
  H     -6.693443    0.024007   -0.127407

 Total Charge           Charge          ....    0
 Multiplicity           Mult            ....    1
 Number of Electrons    NEL             ....   66
 Basis Dimension        Dim             ....  309

ORBITAL ENERGIES
----------------

  NO   OCC          E(Eh)            E(eV)
   0   2.0000     -20.593189      -560.3692
   1   2.0000     -20.560712      -559.4854
   2   2.0000     -20.557029      -559.3852
   3   2.0000     -15.632737      -425.3884
   4   2.0000     -11.406012      -310.3734
   5   2.0000     -11.379253      -309.6452
   6   2.0000     -11.335302      -308.4492
   7   2.0000     -11.282275      -307.0063
   8   2.0000     -11.266361      -306.5733
   9   2.0000      -1.431789       -38.9610
  10   2.0000      -1.405865       -38.2555
  11   2.0000      -1.398641       -38.0589
  12   2.0000      -1.266827       -34.4721
  13   2.0000      -1.094626       -29.7863
  14   2.0000      -1.000144       -27.2153
  15   2.0000      -0.939910       -25.5762
  16   2.0000      -0.825984       -22.4762
  17   2.0000      -0.792963       -21.5776
  18   2.0000      -0.747733       -20.3468
  19   2.0000      -0.711469       -19.3601
  20   2.0000      -0.690965       -18.8021
  21   2.0000      -0.665250       -18.1024
  22   2.0000      -0.649241       -17.6667
  23   2.0000      -0.635948       -17.3050
  24   2.0000      -0.634590       -17.2681
  25   2.0000      -0.564420       -15.3586
  26   2.0000      -0.551197       -14.9988
  27   2.0000      -0.507079       -13.7983
  28   2.0000      -0.500090       -13.6081
  29   2.0000      -0.443117       -12.0578
  30   2.0000      -0.442132       -12.0310
  31   2.0000      -0.432586       -11.7713
  32   2.0000      -0.421389       -11.4666
  33   0.0000       0.074578         2.0294
  34   0.0000       0.107318         2.9203
  35   0.0000       0.122369         3.3298
  36   0.0000       0.150554         4.0968
  37   0.0000       0.161374         4.3912

MULLIKEN ATOMIC CHARGES
-----------------------
   0 O :   -0.455662
   1 C :   -0.071209
   2 C :   -0.046042
   3 C :    0.007371
   4 C :    0.220266
   5 O :   -0.249020
   6 N :   -0.303788
   7 C :    0.179757
   8 O :   -0.258960
   9 H :    0.323111
  10 H :    0.152250
  11 H :    0.151441
  12 H :    0.258221
  13 H :    0.092265
Sum of atomic charges:   -0.0000000

LOEWDIN ATOMIC CHARGES
----------------------
   0 O :   -0.031681
   1 C :   -0.328489
   2 C :   -0.042000
   3 C :   -0.030882
   4 C :   -0.410282
   5 O :    0.182116
   6 N :    0.122795
   7 C :   -0.387940
   8 O :    0.136354
   9 H :    0.179924
  10 H :    0.153194
  11 H :    0.141416
  12 H :    0.202008
  13 H :    0.113466

  Mayer bond orders larger than 0.1
B(  0-O ,  1-C ) :   0.9453 B(  0-O ,  9-H ) :   0.8420 B(  1-C ,  2-C ) :   0.8831
B(  1-C , 10-H ) :   0.9155 B(  1-C , 11-H ) :   0.9753 B(  2-C ,  3-C ) :   2.7356
B(  3-C ,  4-C ) :   0.9627 B(  4-C ,  5-O ) :   2.0300 B(  4-C ,  6-N ) :   1.0547
B(  6-N ,  7-C ) :   0.9972 B(  6-N , 12-H ) :   0.8638 B(  7-C ,  8-O ) :   1.9935
B(  7-C , 13-H ) :   0.9255

MP2 TOTAL ENERGY:     -473.063207925 Eh
FINAL SINGLE POINT ENERGY      -473.063207924865

DIPOLE MOMENT
-------------
                                X             Y             Z
Electronic contribution:     -4.44685      -3.61107       0.23552
Nuclear contribution   :      5.33854       5.37099      -0.06944
                        -----------------------------------------
Total Dipole Moment    :      0.89169       1.75992       0.16608
                        -----------------------------------------
Magnitude (a.u.)       :      1.97990
Magnitude (Debye)      :      5.03251

                             ****ORCA TERMINATED NORMALLY****
TOTAL RUN TIME: 0 days 0 hours 10 minutes 47 seconds 475 msec
