                         Program Version 3.0.3 - RELEASE   -
|  1> ! RI-MP2 RIJK def2-TZVP def2-TZVP/C def2-TZVP/JK TIGHTSCF
|  2> % maxcore 2000
|  3> % mp2 density relaxed end
|  4> *xyz 0 1
|  5>  C        0.1968521291     1.4881365900    -0.1971787168
|  6>  C       -0.1279923809     0.0149573281     0.1111865538
|  7>  C        0.6181001629    -0.5224441150     1.2990219666
|  8>  C        0.0843312546    -0.8921919726     2.4661481756
|  9>  C        1.1130433361    -1.3339167693     3.4765081802
| 10>  O        0.7708566177    -2.5182418891     4.1893094807
| 11>  C        2.3974274115    -1.4569337592     2.6188503887
| 12>  C        2.1392817138    -0.6416989458     1.3271608969
| 13>  C        2.7647995667    -1.2624935200     0.0715674330
| 14>  H        1.2597277678     1.6284928731    -0.4178599450
| 15>  H       -0.3717990515     1.8369480553    -1.0645056043
| 16>  H       -0.0540098395     2.1286694781     0.6541019144
| 17>  H       -1.2044921057    -0.0911302135     0.2845192279
| 18>  H        0.1049681059    -0.5895779699    -0.7756098268
| 19>  H       -0.9729057118    -0.8580935452     2.7110467451
| 20>  H        1.2333968121    -0.5817575783     4.2673714984
| 21>  H        0.5507628523    -3.1888110553     3.5327677207
| 22>  H        3.3003256328    -1.1473402642     3.1514373764
| 23>  H        2.5244238062    -2.5161833987     2.3613458803
| 24>  H        2.5638986885     0.3664032484     1.4462243049
| 25>  H        2.3472051557    -2.2570053330    -0.1228813715
| 26>  H        2.5963380976    -0.6468873374    -0.8178852117
| 27>  H        3.8471165378    -1.3734898666     0.1948549824
| 28> *
| 29>
| 30>                          ****END OF INPUT****

CARTESIAN COORDINATES (ANGSTROEM)
---------------------------------
  C      0.196852    1.488137   -0.197179
  C     -0.127992    0.014957    0.111187
  C      0.618100   -0.522444    1.299022
  C      0.084331   -0.892192    2.466148
  C      1.113043   -1.333917    3.476508
  O      0.770857   -2.518242    4.189309
  C      2.397427   -1.456934    2.618850
  C      2.139282   -0.641699    1.327161
  C      2.764800   -1.262494    0.071567
  H      1.259728    1.628493   -0.417860
  H     -0.371799    1.836948   -1.064506
  H     -0.054010    2.128669    0.654102
  H     -1.204492   -0.091130    0.284519
  H      0.104968   -0.589578   -0.775610
  H     -0.972906   -0.858094    2.711047
  H      1.233397   -0.581758    4.267371
  H      0.550763   -3.188811    3.532768
  H      3.300326   -1.147340    3.151437
  H      2.524424   -2.516183    2.361346
  H      2.563899    0.366403    1.446224
  H      2.347205   -2.257005   -0.122881
  H      2.596338   -0.646887   -0.817885
  H      3.847117   -1.373490    0.194855

 Total Charge           Charge          ....    0
 Multiplicity           Mult            ....    1
 Number of Electrons    NEL             ....   70
 Basis Dimension        Dim             ....  363

ORBITAL ENERGIES
----------------

  NO   OCC          E(Eh)            E(eV)
   0   2.0000     -20.547058      -559.1139
   1   2.0000     -11.275015      -306.8088
   2   2.0000     -11.234050      -305.6940
   3   2.0000     -11.233203      -305.6710
   4   2.0000     -11.230335      -305.5930
   5   2.0000     -11.220664      -305.3298
   6   2.0000     -11.218713      -305.2767
   7   2.0000     -11.218019      -305.2578
   8   2.0000     -11.213022      -305.1218
   9   2.0000      -1.352539       -36.8045
  10   2.0000      -1.140356       -31.0307
  11   2.0000      -1.042758       -28.3749
  12   2.0000      -1.006395       -27.3854
  13   2.0000      -0.949867       -25.8472
  14   2.0000      -0.884572       -24.0704
  15   2.0000      -0.845707       -23.0129
  16   2.0000      -0.788534       -21.4571
  17   2.0000      -0.709422       -19.3044
  18   2.0000      -0.684544       -18.6274
  19   2.0000      -0.638752       -17.3813
  20   2.0000      -0.630089       -17.1456
  21   2.0000      -0.609466       -16.5844
  22   2.0000      -0.592843       -16.1321
  23   2.0000      -0.567776       -15.4500
  24   2.0000      -0.548615       -14.9286
  25   2.0000      -0.542568       -14.7640
  26   2.0000      -0.530534       -14.4366
  27   2.0000      -0.524243       -14.2654
  28   2.0000      -0.507779       -13.8174
  29   2.0000      -0.493329       -13.4242
  30   2.0000      -0.481301       -13.0969
  31   2.0000      -0.462919       -12.5967
  32   2.0000      -0.453649       -12.3444
  33   2.0000      -0.424349       -11.5471
  34   2.0000      -0.343838        -9.3563
  35   0.0000       0.128508         3.4969
  36   0.0000       0.141625         3.8538
  37   0.0000       0.153609         4.1799
  38   0.0000       0.159768         4.3475
  39   0.0000       0.171378         4.6634

MULLIKEN ATOMIC CHARGES
-----------------------
   0 C :   -0.401362
   1 C :   -0.251797
   2 C :    0.052882
   3 C :   -0.298572
   4 C :    0.178462
   5 O :   -0.470150
   6 C :   -0.293238
   7 C :    0.005354
   8 C :   -0.431005
   9 H :    0.126940
  10 H :    0.134601
  11 H :    0.132854
  12 H :    0.122882
  13 H :    0.126862
  14 H :    0.125176
  15 H :    0.100210
  16 H :    0.305009
  17 H :    0.125756
  18 H :    0.109015
  19 H :    0.102376
  20 H :    0.126667
  21 H :    0.132576
  22 H :    0.138505
Sum of atomic charges:    0.0000000

LOEWDIN ATOMIC CHARGES
----------------------
   0 C :   -0.307778
   1 C :   -0.252637
   2 C :   -0.140734
   3 C :   -0.132862
   4 C :   -0.322629
   5 O :   -0.029580
   6 C :   -0.201393
   7 C :   -0.229634
   8 C :   -0.292847
   9 H :    0.119960
  10 H :    0.121489
  11 H :    0.123243
  12 H :    0.143812
  13 H :    0.143861
  14 H :    0.139930
  15 H :    0.145188
  16 H :    0.169971
  17 H :    0.133625
  18 H :    0.141529
  19 H :    0.156563
  20 H :    0.123783
  21 H :    0.121561
  22 H :    0.125581

  Mayer bond orders larger than 0.1
B(  0-C ,  1-C ) :   0.9081 B(  0-C ,  9-H ) :   0.9363 B(  0-C , 10-H ) :   0.9372
B(  0-C , 11-H ) :   0.9381 B(  1-C ,  2-C ) :   0.8924 B(  1-C , 12-H ) :   0.9411
B(  1-C , 13-H ) :   0.9364 B(  2-C ,  3-C ) :   1.6849 B(  2-C ,  7-C ) :   0.8895
B(  3-C ,  4-C ) :   0.9614 B(  3-C , 14-H ) :   0.9375 B(  4-C ,  5-O ) :   0.9181
B(  4-C ,  6-C ) :   0.9431 B(  4-C , 15-H ) :   0.9118 B(  5-O , 16-H ) :   0.8437
B(  6-C ,  7-C ) :   0.9098 B(  6-C , 17-H ) :   0.9270 B(  6-C , 18-H ) :   0.9329
B(  7-C ,  8-C ) :   0.8813 B(  7-C , 19-H ) :   0.9123 B(  8-C , 20-H ) :   0.9347
B(  8-C , 21-H ) :   0.9378 B(  8-C , 22-H ) :   0.9378

MP2 TOTAL ENERGY:     -387.636553088 Eh
FINAL SINGLE POINT ENERGY      -387.636553087932

DIPOLE MOMENT
-------------
                                X             Y             Z
Electronic contribution:     -1.94378      -3.61831       7.23906
Nuclear contribution   :      1.99798       3.85230      -8.07021
                        -----------------------------------------
Total Dipole Moment    :      0.05420       0.23399      -0.83116
                        -----------------------------------------
Magnitude (a.u.)       :      0.86516
Magnitude (Debye)      :      2.19907

                             ****ORCA TERMINATED NORMALLY****
TOTAL RUN TIME: 0 days 0 hours 21 minutes 28 seconds 463 msec
