                         Program Version 3.0.3 - RELEASE   -
|  1> ! RI-MP2 RIJK def2-TZVP def2-TZVP/C def2-TZVP/JK TIGHTSCF
|  2> % maxcore 2000
|  3> % mp2 density relaxed end
|  4> *xyz 0 1
|  5>  C        0.3801194868     1.5866089329    -0.0838654934
|  6>  C        0.0771591441     0.1031290482    -0.0123312262
|  7>  N        0.9796904539    -0.7786080283    -0.8262767180
|  8>  C        1.1914917662    -1.6909189020     0.3119621255
|  9>  C        2.4810692663    -1.3003663965     1.0853194453
| 10>  O        1.7557057211    -0.2897455514     1.8265279369
| 11>  C        0.4876327920    -0.6904120394     1.2543949869
| 12>  C        3.0339510658    -2.3328289310     1.9652177323
| 13>  N        3.4545549951    -3.1745357382     2.6363376953
| 14>  H        1.4100361911     1.7773822632     0.2258417017
| 15>  H        0.2494556460     1.9555340341    -1.1059434705
| 16>  H       -0.2928758476     2.1511391453     0.5704030948
| 17>  H       -0.9848464088    -0.0875738942    -0.2235139331
| 18>  H        0.5402445865    -1.2082920882    -1.6308442732
| 19>  H        0.9548483726    -2.7469374797     0.1889953245
| 20>  H        3.2685772723    -0.8726206000     0.4574591584
| 21>  H       -0.2593300734    -0.9078761345     2.0185752527
| 22> *
| 23>
| 24>                          ****END OF INPUT****

CARTESIAN COORDINATES (ANGSTROEM)
---------------------------------
  C      0.380119    1.586609   -0.083865
  C      0.077159    0.103129   -0.012331
  N      0.979690   -0.778608   -0.826277
  C      1.191492   -1.690919    0.311962
  C      2.481069   -1.300366    1.085319
  O      1.755706   -0.289746    1.826528
  C      0.487633   -0.690412    1.254395
  C      3.033951   -2.332829    1.965218
  N      3.454555   -3.174536    2.636338
  H      1.410036    1.777382    0.225842
  H      0.249456    1.955534   -1.105943
  H     -0.292876    2.151139    0.570403
  H     -0.984846   -0.087574   -0.223514
  H      0.540245   -1.208292   -1.630844
  H      0.954848   -2.746937    0.188995
  H      3.268577   -0.872621    0.457459
  H     -0.259330   -0.907876    2.018575

 Total Charge           Charge          ....    0
 Multiplicity           Mult            ....    1
 Number of Electrons    NEL             ....   66
 Basis Dimension        Dim             ....  327

ORBITAL ENERGIES
----------------

  NO   OCC          E(Eh)            E(eV)
   0   2.0000     -20.583483      -560.1051
   1   2.0000     -15.579087      -423.9285
   2   2.0000     -15.568329      -423.6358
   3   2.0000     -11.338417      -308.5340
   4   2.0000     -11.306597      -307.6682
   5   2.0000     -11.295360      -307.3624
   6   2.0000     -11.281356      -306.9813
   7   2.0000     -11.276124      -306.8389
   8   2.0000     -11.223762      -305.4141
   9   2.0000      -1.419238       -38.6194
  10   2.0000      -1.246674       -33.9237
  11   2.0000      -1.222684       -33.2709
  12   2.0000      -1.045961       -28.4621
  13   2.0000      -0.995863       -27.0988
  14   2.0000      -0.972134       -26.4531
  15   2.0000      -0.863436       -23.4953
  16   2.0000      -0.782142       -21.2832
  17   2.0000      -0.739990       -20.1361
  18   2.0000      -0.699540       -19.0354
  19   2.0000      -0.682793       -18.5797
  20   2.0000      -0.655209       -17.8291
  21   2.0000      -0.606913       -16.5149
  22   2.0000      -0.593861       -16.1598
  23   2.0000      -0.578605       -15.7447
  24   2.0000      -0.564852       -15.3704
  25   2.0000      -0.533348       -14.5131
  26   2.0000      -0.521090       -14.1796
  27   2.0000      -0.513441       -13.9714
  28   2.0000      -0.477070       -12.9817
  29   2.0000      -0.468180       -12.7398
  30   2.0000      -0.461436       -12.5563
  31   2.0000      -0.438006       -11.9187
  32   2.0000      -0.396154       -10.7799
  33   0.0000       0.118558         3.2261
  34   0.0000       0.132540         3.6066
  35   0.0000       0.149108         4.0574
  36   0.0000       0.156466         4.2577
  37   0.0000       0.162121         4.4115

MULLIKEN ATOMIC CHARGES
-----------------------
   0 C :   -0.408689
   1 C :    0.013328
   2 N :   -0.386122
   3 C :   -0.078611
   4 C :    0.230521
   5 O :   -0.332340
   6 C :    0.076338
   7 C :   -0.215711
   8 N :   -0.050793
   9 H :    0.147457
  10 H :    0.132228
  11 H :    0.127180
  12 H :    0.102527
  13 H :    0.214995
  14 H :    0.145076
  15 H :    0.145520
  16 H :    0.137095
Sum of atomic charges:   -0.0000000

LOEWDIN ATOMIC CHARGES
----------------------
   0 C :   -0.295457
   1 C :   -0.272099
   2 N :    0.020044
   3 C :   -0.204907
   4 C :   -0.247554
   5 O :    0.180428
   6 C :   -0.211687
   7 C :   -0.162615
   8 N :    0.075324
   9 H :    0.130475
  10 H :    0.126904
  11 H :    0.127658
  12 H :    0.141331
  13 H :    0.162108
  14 H :    0.137668
  15 H :    0.160390
  16 H :    0.131990

  Mayer bond orders larger than 0.1
B(  0-C ,  1-C ) :   0.9088 B(  0-C ,  9-H ) :   0.9366 B(  0-C , 10-H ) :   0.9323
B(  0-C , 11-H ) :   0.9317 B(  1-C ,  2-N ) :   0.8920 B(  1-C ,  6-C ) :   0.9126
B(  1-C , 12-H ) :   0.9189 B(  2-N ,  3-C ) :   1.0711 B(  2-N , 13-H ) :   0.8772
B(  3-C ,  4-C ) :   0.8818 B(  3-C ,  6-C ) :   0.9438 B(  3-C , 14-H ) :   0.9141
B(  4-C ,  5-O ) :   0.9000 B(  4-C ,  7-C ) :   0.9030 B(  4-C , 15-H ) :   0.8985
B(  5-O ,  6-C ) :   0.8891 B(  6-C , 16-H ) :   0.9167 B(  7-C ,  8-N ) :   2.8447

MP2 TOTAL ENERGY:     -417.260471094 Eh
FINAL SINGLE POINT ENERGY      -417.260471093629

DIPOLE MOMENT
-------------
                                X             Y             Z
Electronic contribution:      5.32495      -6.39386       4.85713
Nuclear contribution   :     -6.71166       6.81889      -6.12858
                        -----------------------------------------
Total Dipole Moment    :     -1.38671       0.42504      -1.27145
                        -----------------------------------------
Magnitude (a.u.)       :      1.92878
Magnitude (Debye)      :      4.90257

                             ****ORCA TERMINATED NORMALLY****
TOTAL RUN TIME: 0 days 0 hours 16 minutes 47 seconds 547 msec
