                         Program Version 3.0.3 - RELEASE   -
|  1> ! RI-MP2 RIJK def2-TZVP def2-TZVP/C def2-TZVP/JK TIGHTSCF
|  2> % maxcore 2000
|  3> % mp2 density relaxed end
|  4> *xyz 0 1
|  5>  N        0.1691156583     0.8620657557     0.8758492577
|  6>  C        0.1035852886    -0.2092430864     0.2101958239
|  7>  O        1.1837632024    -0.8686511443    -0.2981841895
|  8>  C        0.7839871602    -2.0371008696    -1.0277838534
|  9>  C       -0.6727708078    -2.3224504652    -0.6234988874
| 10>  C       -0.8615200297    -3.2021775023     0.5927357803
| 11>  C       -1.5933144078    -2.6111442290     1.5362505936
| 12>  C       -2.0365072514    -1.2239228960     1.1386064187
| 13>  C       -1.1839285404    -0.9472974344    -0.1219479077
| 14>  H        1.1381798387     1.1699138826     0.9704114228
| 15>  H        0.8747900087    -1.8290983483    -2.1007613751
| 16>  H        1.4734893401    -2.8459111536    -0.7697086365
| 17>  H       -1.2286696804    -2.7129640050    -1.4835732641
| 18>  H       -0.4582524923    -4.2079766322     0.6449640012
| 19>  H       -1.8773012224    -3.0643233739     2.4796962095
| 20>  H       -3.1107454289    -1.2044745645     0.9128199548
| 21>  H       -1.8558539454    -0.4653420970     1.9059949840
| 22>  H       -1.7295283204    -0.3795216967    -0.8797612426
| 23> *
| 24>
| 25>                          ****END OF INPUT****

CARTESIAN COORDINATES (ANGSTROEM)
---------------------------------
  N      0.169116    0.862066    0.875849
  C      0.103585   -0.209243    0.210196
  O      1.183763   -0.868651   -0.298184
  C      0.783987   -2.037101   -1.027784
  C     -0.672771   -2.322450   -0.623499
  C     -0.861520   -3.202178    0.592736
  C     -1.593314   -2.611144    1.536251
  C     -2.036507   -1.223923    1.138606
  C     -1.183929   -0.947297   -0.121948
  H      1.138180    1.169914    0.970411
  H      0.874790   -1.829098   -2.100761
  H      1.473489   -2.845911   -0.769709
  H     -1.228670   -2.712964   -1.483573
  H     -0.458252   -4.207977    0.644964
  H     -1.877301   -3.064323    2.479696
  H     -3.110745   -1.204475    0.912820
  H     -1.855854   -0.465342    1.905995
  H     -1.729528   -0.379522   -0.879761

 Total Charge           Charge          ....    0
 Multiplicity           Mult            ....    1
 Number of Electrons    NEL             ....   66
 Basis Dimension        Dim             ....  333

ORBITAL ENERGIES
----------------

  NO   OCC          E(Eh)            E(eV)
   0   2.0000     -20.589377      -560.2654
   1   2.0000     -15.523090      -422.4047
   2   2.0000     -11.329689      -308.2965
   3   2.0000     -11.294088      -307.3278
   4   2.0000     -11.249045      -306.1021
   5   2.0000     -11.247124      -306.0498
   6   2.0000     -11.236804      -305.7690
   7   2.0000     -11.232979      -305.6649
   8   2.0000     -11.232711      -305.6576
   9   2.0000      -1.426134       -38.8071
  10   2.0000      -1.189472       -32.3672
  11   2.0000      -1.152914       -31.3724
  12   2.0000      -1.015265       -27.6268
  13   2.0000      -0.993415       -27.0322
  14   2.0000      -0.921530       -25.0761
  15   2.0000      -0.815439       -22.1892
  16   2.0000      -0.762697       -20.7540
  17   2.0000      -0.742876       -20.2147
  18   2.0000      -0.702971       -19.1288
  19   2.0000      -0.675458       -18.3801
  20   2.0000      -0.659979       -17.9590
  21   2.0000      -0.648240       -17.6395
  22   2.0000      -0.594263       -16.1707
  23   2.0000      -0.562199       -15.2982
  24   2.0000      -0.542439       -14.7605
  25   2.0000      -0.536840       -14.6082
  26   2.0000      -0.505857       -13.7651
  27   2.0000      -0.495423       -13.4812
  28   2.0000      -0.482964       -13.1421
  29   2.0000      -0.477937       -13.0053
  30   2.0000      -0.428166       -11.6510
  31   2.0000      -0.389684       -10.6038
  32   2.0000      -0.360588        -9.8121
  33   0.0000       0.130573         3.5531
  34   0.0000       0.144060         3.9201
  35   0.0000       0.161667         4.3992
  36   0.0000       0.169400         4.6096
  37   0.0000       0.173529         4.7220

MULLIKEN ATOMIC CHARGES
-----------------------
   0 N :   -0.395884
   1 C :    0.044342
   2 O :   -0.256061
   3 C :   -0.021544
   4 C :   -0.065396
   5 C :   -0.217806
   6 C :   -0.190087
   7 C :   -0.199687
   8 C :    0.061477
   9 H :    0.222208
  10 H :    0.108582
  11 H :    0.117792
  12 H :    0.122226
  13 H :    0.131844
  14 H :    0.130988
  15 H :    0.120324
  16 H :    0.159427
  17 H :    0.127253
Sum of atomic charges:   -0.0000000

LOEWDIN ATOMIC CHARGES
----------------------
   0 N :   -0.062426
   1 C :   -0.383777
   2 O :    0.238185
   3 C :   -0.246093
   4 C :   -0.205193
   5 C :   -0.142900
   6 C :   -0.144915
   7 C :   -0.206084
   8 C :   -0.159724
   9 H :    0.167656
  10 H :    0.125222
  11 H :    0.129949
  12 H :    0.156454
  13 H :    0.138794
  14 H :    0.138737
  15 H :    0.142497
  16 H :    0.150981
  17 H :    0.162637

  Mayer bond orders larger than 0.1
B(  0-N ,  1-C ) :   2.0509 B(  0-N ,  9-H ) :   0.8557 B(  1-C ,  2-O ) :   1.0901
B(  1-C ,  8-C ) :   0.8683 B(  2-O ,  3-C ) :   0.8915 B(  3-C ,  4-C ) :   0.9385
B(  3-C , 10-H ) :   0.9224 B(  3-C , 11-H ) :   0.9217 B(  4-C ,  5-C ) :   0.9159
B(  4-C ,  8-C ) :   0.9577 B(  4-C , 12-H ) :   0.9073 B(  5-C ,  6-C ) :   1.7839
B(  5-C , 13-H ) :   0.9191 B(  6-C ,  7-C ) :   0.9488 B(  6-C , 14-H ) :   0.9275
B(  7-C ,  8-C ) :   0.9073 B(  7-C , 15-H ) :   0.9119 B(  7-C , 16-H ) :   0.9160
B(  8-C , 17-H ) :   0.9095

MP2 TOTAL ENERGY:     -401.288425429 Eh
FINAL SINGLE POINT ENERGY      -401.288425429216

DIPOLE MOMENT
-------------
                                X             Y             Z
Electronic contribution:      2.63890       2.01918      -0.10793
Nuclear contribution   :     -2.82439      -3.02301      -0.46207
                        -----------------------------------------
Total Dipole Moment    :     -0.18549      -1.00382      -0.57000
                        -----------------------------------------
Magnitude (a.u.)       :      1.16917
Magnitude (Debye)      :      2.97180

                             ****ORCA TERMINATED NORMALLY****
TOTAL RUN TIME: 0 days 0 hours 18 minutes 0 seconds 340 msec
