                         Program Version 3.0.3 - RELEASE   -
|  1> ! RI-MP2 RIJK def2-TZVP def2-TZVP/C def2-TZVP/JK TIGHTSCF
|  2> % maxcore 2000
|  3> % mp2 density relaxed end
|  4> *xyz 0 1
|  5>  C        0.0706131435     1.5842323158    -0.1475687192
|  6>  C       -0.0593065894     0.0594907909     0.0194199940
|  7>  C        0.6648867831    -0.4630863008     1.2232977364
|  8>  C        0.1299238474    -0.7868231354     2.4662119251
|  9>  N        1.1743670197    -1.1904967923     3.2505767072
| 10>  N        2.3425077974    -1.1554197056     2.6086655193
| 11>  C        2.0438812771    -0.7160595407     1.3861514467
| 12>  C       -1.2025484384    -0.7517271192     2.9347577886
| 13>  N       -2.2952217746    -0.7243986665     3.3195635320
| 14>  H        1.1192221215     1.8825682004    -0.2424064216
| 15>  H       -0.4610265619     1.9196483416    -1.0429691883
| 16>  H       -0.3497292521     2.1090796505     0.7154005077
| 17>  H       -1.1183666729    -0.2102153998     0.0885803599
| 18>  H        0.3299822636    -0.4378625381    -0.8763137034
| 19>  H        1.1353589979    -1.5039390738     4.2068614957
| 20>  H        2.8296737580    -0.5989408272     0.6540812098
| 21> *
| 22>
| 23>                          ****END OF INPUT****

CARTESIAN COORDINATES (ANGSTROEM)
---------------------------------
  C      0.070613    1.584232   -0.147569
  C     -0.059307    0.059491    0.019420
  C      0.664887   -0.463086    1.223298
  C      0.129924   -0.786823    2.466212
  N      1.174367   -1.190497    3.250577
  N      2.342508   -1.155420    2.608666
  C      2.043881   -0.716060    1.386151
  C     -1.202548   -0.751727    2.934758
  N     -2.295222   -0.724399    3.319564
  H      1.119222    1.882568   -0.242406
  H     -0.461027    1.919648   -1.042969
  H     -0.349729    2.109080    0.715401
  H     -1.118367   -0.210215    0.088580
  H      0.329982   -0.437863   -0.876314
  H      1.135359   -1.503939    4.206861
  H      2.829674   -0.598941    0.654081

 Total Charge           Charge          ....    0
 Multiplicity           Mult            ....    1
 Number of Electrons    NEL             ....   64
 Basis Dimension        Dim             ....  321

ORBITAL ENERGIES
----------------

  NO   OCC          E(Eh)            E(eV)
   0   2.0000     -15.668871      -426.3717
   1   2.0000     -15.621936      -425.0945
   2   2.0000     -15.592871      -424.3036
   3   2.0000     -11.320207      -308.0385
   4   2.0000     -11.295551      -307.3676
   5   2.0000     -11.273124      -306.7573
   6   2.0000     -11.264447      -306.5212
   7   2.0000     -11.251058      -306.1569
   8   2.0000     -11.230718      -305.6034
   9   2.0000      -1.408475       -38.3266
  10   2.0000      -1.237016       -33.6609
  11   2.0000      -1.128737       -30.7145
  12   2.0000      -1.119652       -30.4673
  13   2.0000      -1.029367       -28.0105
  14   2.0000      -0.904200       -24.6045
  15   2.0000      -0.867596       -23.6085
  16   2.0000      -0.837411       -22.7871
  17   2.0000      -0.775488       -21.1021
  18   2.0000      -0.675397       -18.3785
  19   2.0000      -0.649695       -17.6791
  20   2.0000      -0.621672       -16.9165
  21   2.0000      -0.620869       -16.8947
  22   2.0000      -0.600815       -16.3490
  23   2.0000      -0.573508       -15.6060
  24   2.0000      -0.544515       -14.8170
  25   2.0000      -0.529646       -14.4124
  26   2.0000      -0.513843       -13.9824
  27   2.0000      -0.509027       -13.8513
  28   2.0000      -0.495244       -13.4763
  29   2.0000      -0.469841       -12.7850
  30   2.0000      -0.383384       -10.4324
  31   2.0000      -0.359195        -9.7742
  32   0.0000       0.086213         2.3460
  33   0.0000       0.119248         3.2449
  34   0.0000       0.132573         3.6075
  35   0.0000       0.161449         4.3932
  36   0.0000       0.163685         4.4541

MULLIKEN ATOMIC CHARGES
-----------------------
   0 C :   -0.379220
   1 C :   -0.225813
   2 C :    0.011609
   3 C :    0.187751
   4 N :   -0.102472
   5 N :   -0.200666
   6 C :   -0.109981
   7 C :   -0.232987
   8 N :   -0.034819
   9 H :    0.128814
  10 H :    0.136016
  11 H :    0.135107
  12 H :    0.138036
  13 H :    0.132618
  14 H :    0.271999
  15 H :    0.144007
Sum of atomic charges:   -0.0000000

LOEWDIN ATOMIC CHARGES
----------------------
   0 C :   -0.302997
   1 C :   -0.245554
   2 C :   -0.146680
   3 C :   -0.217530
   4 N :    0.169053
   5 N :    0.038190
   6 C :   -0.225285
   7 C :   -0.161968
   8 N :    0.084239
   9 H :    0.122450
  10 H :    0.122895
  11 H :    0.124791
  12 H :    0.150050
  13 H :    0.148601
  14 H :    0.198691
  15 H :    0.141053

  Mayer bond orders larger than 0.1
B(  0-C ,  1-C ) :   0.9126 B(  0-C ,  9-H ) :   0.9383 B(  0-C , 10-H ) :   0.9352
B(  0-C , 11-H ) :   0.9350 B(  1-C ,  2-C ) :   0.8879 B(  1-C , 12-H ) :   0.9359
B(  1-C , 13-H ) :   0.9392 B(  2-C ,  3-C ) :   1.3209 B(  2-C ,  6-C ) :   1.3055
B(  3-C ,  4-N ) :   1.1792 B(  3-C ,  5-N ) :   0.1157 B(  3-C ,  7-C ) :   0.8942
B(  4-N ,  5-N ) :   1.0822 B(  4-N , 14-H ) :   0.8623 B(  5-N ,  6-C ) :   1.4992
B(  6-C , 15-H ) :   0.9378 B(  7-C ,  8-N ) :   2.8483

MP2 TOTAL ENERGY:     -396.278212613 Eh
FINAL SINGLE POINT ENERGY      -396.278212613046

DIPOLE MOMENT
-------------
                                X             Y             Z
Electronic contribution:     -0.44048      -5.71159       8.53322
Nuclear contribution   :      1.08010       5.81321      -8.98721
                        -----------------------------------------
Total Dipole Moment    :      0.63961       0.10161      -0.45400
                        -----------------------------------------
Magnitude (a.u.)       :      0.79091
Magnitude (Debye)      :      2.01034

                             ****ORCA TERMINATED NORMALLY****
TOTAL RUN TIME: 0 days 0 hours 16 minutes 6 seconds 976 msec
