                         Program Version 3.0.3 - RELEASE   -
|  1> ! RI-MP2 RIJK def2-TZVP def2-TZVP/C def2-TZVP/JK TIGHTSCF
|  2> % maxcore 2000
|  3> % mp2 density relaxed end
|  4> *xyz 0 1
|  5>  N       -0.1365760659     1.3923005556    -0.4253528004
|  6>  C       -0.0751157249     0.0389596648    -0.1172247983
|  7>  C       -1.0418235481    -0.8374864057     0.2654404746
|  8>  O       -0.4515488672    -2.0823910761     0.3649984754
|  9>  C        0.8348502157    -1.8764881045     0.0399714345
| 10>  C        1.7652135634    -3.0510412733     0.0338172162
| 11>  C        1.8723457220    -3.7210637884     1.3278075614
| 12>  C        1.9628102934    -4.2755789330     2.3888648588
| 13>  N        1.1244044670    -0.6466883299    -0.2557187060
| 14>  H        0.7684437273     1.8343019696    -0.3355429482
| 15>  H       -0.8429903914     1.9026320971     0.0856048751
| 16>  H       -2.0914227661    -0.7793805457     0.4887189571
| 17>  H        1.4331755527    -3.7728580584    -0.7245592012
| 18>  H        2.7423986494    -2.6786251899    -0.2874632637
| 19>  H        2.0406537228    -4.7636559922     3.3286684148
| 20> *
| 21>
| 22>                          ****END OF INPUT****

CARTESIAN COORDINATES (ANGSTROEM)
---------------------------------
  N     -0.136576    1.392301   -0.425353
  C     -0.075116    0.038960   -0.117225
  C     -1.041824   -0.837486    0.265440
  O     -0.451549   -2.082391    0.364998
  C      0.834850   -1.876488    0.039971
  C      1.765214   -3.051041    0.033817
  C      1.872346   -3.721064    1.327808
  C      1.962810   -4.275579    2.388865
  N      1.124404   -0.646688   -0.255719
  H      0.768444    1.834302   -0.335543
  H     -0.842990    1.902632    0.085605
  H     -2.091423   -0.779381    0.488719
  H      1.433176   -3.772858   -0.724559
  H      2.742399   -2.678625   -0.287463
  H      2.040654   -4.763656    3.328668

 Total Charge           Charge          ....    0
 Multiplicity           Mult            ....    1
 Number of Electrons    NEL             ....   64
 Basis Dimension        Dim             ....  315

ORBITAL ENERGIES
----------------

  NO   OCC          E(Eh)            E(eV)
   0   2.0000     -20.628637      -561.3338
   1   2.0000     -15.568656      -423.6447
   2   2.0000     -15.561625      -423.4533
   3   2.0000     -11.346467      -308.7531
   4   2.0000     -11.299919      -307.4864
   5   2.0000     -11.280393      -306.9551
   6   2.0000     -11.268545      -306.6327
   7   2.0000     -11.244344      -305.9742
   8   2.0000     -11.230867      -305.6074
   9   2.0000      -1.481120       -40.3033
  10   2.0000      -1.259655       -34.2770
  11   2.0000      -1.186780       -32.2939
  12   2.0000      -1.096980       -29.8503
  13   2.0000      -1.016862       -27.6702
  14   2.0000      -0.959907       -26.1204
  15   2.0000      -0.824758       -22.4428
  16   2.0000      -0.811298       -22.0765
  17   2.0000      -0.741690       -20.1824
  18   2.0000      -0.715201       -19.4616
  19   2.0000      -0.676417       -18.4062
  20   2.0000      -0.672876       -18.3099
  21   2.0000      -0.647861       -17.6292
  22   2.0000      -0.626877       -17.0582
  23   2.0000      -0.601184       -16.3590
  24   2.0000      -0.592069       -16.1110
  25   2.0000      -0.562729       -15.3126
  26   2.0000      -0.514308       -13.9950
  27   2.0000      -0.465815       -12.6755
  28   2.0000      -0.421386       -11.4665
  29   2.0000      -0.399990       -10.8843
  30   2.0000      -0.396391       -10.7863
  31   2.0000      -0.309344        -8.4177
  32   0.0000       0.132166         3.5964
  33   0.0000       0.138543         3.7700
  34   0.0000       0.151445         4.1210
  35   0.0000       0.168266         4.5787
  36   0.0000       0.172097         4.6830

MULLIKEN ATOMIC CHARGES
-----------------------
   0 N :   -0.521784
   1 C :    0.189788
   2 C :   -0.113016
   3 O :   -0.202488
   4 C :    0.271500
   5 C :   -0.339616
   6 C :   -0.034007
   7 C :   -0.141737
   8 N :   -0.303661
   9 H :    0.261817
  10 H :    0.248237
  11 H :    0.155460
  12 H :    0.164043
  13 H :    0.172738
  14 H :    0.192726
Sum of atomic charges:   -0.0000000

LOEWDIN ATOMIC CHARGES
----------------------
   0 N :   -0.080685
   1 C :   -0.362984
   2 C :   -0.248411
   3 O :    0.356787
   4 C :   -0.345137
   5 C :   -0.208502
   6 C :   -0.102236
   7 C :   -0.094464
   8 N :    0.135600
   9 H :    0.174787
  10 H :    0.168806
  11 H :    0.131996
  12 H :    0.170986
  13 H :    0.175867
  14 H :    0.127589

  Mayer bond orders larger than 0.1
B(  0-N ,  1-C ) :   1.0453 B(  0-N ,  9-H ) :   0.8710 B(  0-N , 10-H ) :   0.8804
B(  1-C ,  2-C ) :   1.5626 B(  1-C ,  8-N ) :   1.1754 B(  2-C ,  3-O ) :   0.9979
B(  2-C , 11-H ) :   0.9262 B(  3-O ,  4-C ) :   1.1155 B(  4-C ,  5-C ) :   0.8950
B(  4-C ,  8-N ) :   1.6569 B(  5-C ,  6-C ) :   1.0660 B(  5-C , 12-H ) :   0.9291
B(  5-C , 13-H ) :   0.9277 B(  6-C ,  7-C ) :   2.6367 B(  7-C , 14-H ) :   0.9002

MP2 TOTAL ENERGY:     -416.084593810 Eh
FINAL SINGLE POINT ENERGY      -416.084593810137

DIPOLE MOMENT
-------------
                                X             Y             Z
Electronic contribution:     -0.68253      -1.00386       0.08987
Nuclear contribution   :      0.34567       1.30254       0.26066
                        -----------------------------------------
Total Dipole Moment    :     -0.33686       0.29869       0.35053
                        -----------------------------------------
Magnitude (a.u.)       :      0.57058
Magnitude (Debye)      :      1.45030

                             ****ORCA TERMINATED NORMALLY****
TOTAL RUN TIME: 0 days 0 hours 13 minutes 48 seconds 178 msec
