                         Program Version 3.0.3 - RELEASE   -
|  1> ! RI-MP2 RIJK def2-TZVP def2-TZVP/C def2-TZVP/JK TIGHTSCF
|  2> % maxcore 2000
|  3> % mp2 density relaxed end
|  4> *xyz 0 1
|  5>  C        0.1636579670     1.5406260114    -0.0955207461
|  6>  C       -0.0066836197     0.0334470793     0.0686488368
|  7>  O        0.5226742615    -0.6341881758    -1.0935617054
|  8>  C        1.2505117287    -1.7750098109    -0.6766497279
|  9>  C        2.6894309286    -1.9461209067    -1.1884335683
| 10>  C        3.3181738304    -2.8471646683    -0.0914858591
| 11>  C        2.6214157080    -2.4494697776     1.2573681967
| 12>  C        1.4706599383    -1.5992534539     0.8027888967
| 13>  C        0.7637962059    -0.5620495443     1.2318382757
| 14>  H        1.2244622570     1.8035506401    -0.1423897851
| 15>  H       -0.3184152563     1.8733769562    -1.0192072470
| 16>  H       -0.2958913842     2.0739149821     0.7433325028
| 17>  H       -1.0856392045    -0.1916499259     0.1453136362
| 18>  H        0.6741008324    -2.6910408582    -0.9032261582
| 19>  H        2.7626758194    -2.3832722210    -2.1875332512
| 20>  H        3.1684119588    -0.9611420027    -1.2083393531
| 21>  H        3.1118129086    -3.8989868812    -0.3150510490
| 22>  H        4.4047353860    -2.7435757253    -0.0430676572
| 23>  H        2.2991111471    -3.3393317335     1.8095296594
| 24>  H        3.2897350266    -1.8942859811     1.9224338564
| 25>  H        0.7512363405    -0.1268686129     2.2238124669
| 26> *
| 27>
| 28>                          ****END OF INPUT****

CARTESIAN COORDINATES (ANGSTROEM)
---------------------------------
  C      0.163658    1.540626   -0.095521
  C     -0.006684    0.033447    0.068649
  O      0.522674   -0.634188   -1.093562
  C      1.250512   -1.775010   -0.676650
  C      2.689431   -1.946121   -1.188434
  C      3.318174   -2.847165   -0.091486
  C      2.621416   -2.449470    1.257368
  C      1.470660   -1.599253    0.802789
  C      0.763796   -0.562050    1.231838
  H      1.224462    1.803551   -0.142390
  H     -0.318415    1.873377   -1.019207
  H     -0.295891    2.073915    0.743333
  H     -1.085639   -0.191650    0.145314
  H      0.674101   -2.691041   -0.903226
  H      2.762676   -2.383272   -2.187533
  H      3.168412   -0.961142   -1.208339
  H      3.111813   -3.898987   -0.315051
  H      4.404735   -2.743576   -0.043068
  H      2.299111   -3.339332    1.809530
  H      3.289735   -1.894286    1.922434
  H      0.751236   -0.126869    2.223812

 Total Charge           Charge          ....    0
 Multiplicity           Mult            ....    1
 Number of Electrons    NEL             ....   68
 Basis Dimension        Dim             ....  351

ORBITAL ENERGIES
----------------

  NO   OCC          E(Eh)            E(eV)
   0   2.0000     -20.543128      -559.0069
   1   2.0000     -11.278868      -306.9136
   2   2.0000     -11.270163      -306.6767
   3   2.0000     -11.233166      -305.6700
   4   2.0000     -11.228368      -305.5394
   5   2.0000     -11.227639      -305.5196
   6   2.0000     -11.220039      -305.3128
   7   2.0000     -11.219110      -305.2875
   8   2.0000     -11.210532      -305.0541
   9   2.0000      -1.370181       -37.2845
  10   2.0000      -1.125365       -30.6227
  11   2.0000      -1.055413       -28.7192
  12   2.0000      -0.994796       -27.0698
  13   2.0000      -0.955338       -25.9961
  14   2.0000      -0.889965       -24.2172
  15   2.0000      -0.792612       -21.5681
  16   2.0000      -0.784411       -21.3449
  17   2.0000      -0.737416       -20.0661
  18   2.0000      -0.673686       -18.3319
  19   2.0000      -0.651996       -17.7417
  20   2.0000      -0.633827       -17.2473
  21   2.0000      -0.597634       -16.2625
  22   2.0000      -0.575346       -15.6560
  23   2.0000      -0.562436       -15.3047
  24   2.0000      -0.546871       -14.8811
  25   2.0000      -0.525953       -14.3119
  26   2.0000      -0.521543       -14.1919
  27   2.0000      -0.499144       -13.5824
  28   2.0000      -0.484240       -13.1768
  29   2.0000      -0.481371       -13.0988
  30   2.0000      -0.460892       -12.5415
  31   2.0000      -0.448939       -12.2163
  32   2.0000      -0.417000       -11.3472
  33   2.0000      -0.339484        -9.2378
  34   0.0000       0.134806         3.6682
  35   0.0000       0.140162         3.8140
  36   0.0000       0.157636         4.2895
  37   0.0000       0.168821         4.5939
  38   0.0000       0.178933         4.8690

MULLIKEN ATOMIC CHARGES
-----------------------
   0 C :   -0.400523
   1 C :    0.176643
   2 O :   -0.329928
   3 C :    0.106074
   4 C :   -0.187254
   5 C :   -0.262994
   6 C :   -0.197705
   7 C :   -0.050960
   8 C :   -0.265991
   9 H :    0.125560
  10 H :    0.140064
  11 H :    0.118867
  12 H :    0.085602
  13 H :    0.077541
  14 H :    0.122953
  15 H :    0.108270
  16 H :    0.120218
  17 H :    0.123912
  18 H :    0.130253
  19 H :    0.127051
  20 H :    0.132345
Sum of atomic charges:   -0.0000000

LOEWDIN ATOMIC CHARGES
----------------------
   0 C :   -0.292872
   1 C :   -0.304081
   2 O :    0.191435
   3 C :   -0.270328
   4 C :   -0.228488
   5 C :   -0.238034
   6 C :   -0.211275
   7 C :   -0.149161
   8 C :   -0.121469
   9 H :    0.123946
  10 H :    0.127248
  11 H :    0.124121
  12 H :    0.138365
  13 H :    0.143059
  14 H :    0.132033
  15 H :    0.140901
  16 H :    0.134981
  17 H :    0.131994
  18 H :    0.143059
  19 H :    0.143297
  20 H :    0.141269

  Mayer bond orders larger than 0.1
B(  0-C ,  1-C ) :   0.9030 B(  0-C ,  9-H ) :   0.9369 B(  0-C , 10-H ) :   0.9364
B(  0-C , 11-H ) :   0.9338 B(  1-C ,  2-O ) :   0.9024 B(  1-C ,  8-C ) :   0.9416
B(  1-C , 12-H ) :   0.9103 B(  2-O ,  3-C ) :   0.9943 B(  3-C ,  4-C ) :   0.8760
B(  3-C ,  7-C ) :   0.9552 B(  3-C , 13-H ) :   0.9246 B(  4-C ,  5-C ) :   0.9248
B(  4-C , 14-H ) :   0.9285 B(  4-C , 15-H ) :   0.9255 B(  5-C ,  6-C ) :   0.9438
B(  5-C , 16-H ) :   0.9331 B(  5-C , 17-H ) :   0.9301 B(  6-C ,  7-C ) :   0.9000
B(  6-C , 18-H ) :   0.9219 B(  6-C , 19-H ) :   0.9137 B(  7-C ,  8-C ) :   1.7553
B(  8-C , 20-H ) :   0.9125

MP2 TOTAL ENERGY:     -386.428811281 Eh
FINAL SINGLE POINT ENERGY      -386.428811280760

DIPOLE MOMENT
-------------
                                X             Y             Z
Electronic contribution:     -2.51000      -1.00358      -0.46634
Nuclear contribution   :      2.79129       0.81826       1.01366
                        -----------------------------------------
Total Dipole Moment    :      0.28130      -0.18531       0.54732
                        -----------------------------------------
Magnitude (a.u.)       :      0.64267
Magnitude (Debye)      :      1.63355

                             ****ORCA TERMINATED NORMALLY****
TOTAL RUN TIME: 0 days 0 hours 19 minutes 55 seconds 195 msec
