                         Program Version 3.0.3 - RELEASE   -
|  1> ! RI-MP2 RIJK def2-TZVP def2-TZVP/C def2-TZVP/JK TIGHTSCF
|  2> % maxcore 2000
|  3> % mp2 density relaxed end
|  4> *xyz 0 1
|  5>  C        0.0090410075     1.6070567466    -0.0625172658
|  6>  C       -0.0296152838     0.0778506857    -0.1617462546
|  7>  C       -1.4200892443    -0.5561238570     0.0272022381
|  8>  C       -2.4228083975    -0.1089358994    -1.0300611834
|  9>  C       -1.3180183215    -2.0948580246     0.2585579119
| 10>  C       -1.4801836027    -1.7827199610     1.7732941559
| 11>  N       -1.9635091906    -0.4327949702     1.4190683753
| 12>  C       -2.4237494086    -2.5976004834     2.5414207283
| 13>  N       -3.1572676371    -3.2564499846     3.1445279235
| 14>  H        1.0381605265     1.9701673604    -0.1380472177
| 15>  H       -0.5682901156     2.0827587302    -0.8601457381
| 16>  H       -0.3902626811     1.9647418219     0.8937428292
| 17>  H        0.3595230028    -0.2337393778    -1.1399608855
| 18>  H        0.6544838741    -0.3477976757     0.5843377417
| 19>  H       -2.0600120065    -0.3437102628    -2.0372989949
| 20>  H       -3.3810945944    -0.6109603742    -0.8761997676
| 21>  H       -2.6029300550     0.9691942178    -0.9780545811
| 22>  H       -2.1653900702    -2.6480059082    -0.1473558188
| 23>  H       -0.3859830067    -2.5803605542    -0.0323198063
| 24>  H       -0.5152275603    -1.8044224631     2.2971157500
| 25>  H       -1.5863672452     0.3211642436     1.9843849100
| 26> *
| 27>
| 28>                          ****END OF INPUT****

CARTESIAN COORDINATES (ANGSTROEM)
---------------------------------
  C      0.009041    1.607057   -0.062517
  C     -0.029615    0.077851   -0.161746
  C     -1.420089   -0.556124    0.027202
  C     -2.422808   -0.108936   -1.030061
  C     -1.318018   -2.094858    0.258558
  C     -1.480184   -1.782720    1.773294
  N     -1.963509   -0.432795    1.419068
  C     -2.423749   -2.597600    2.541421
  N     -3.157268   -3.256450    3.144528
  H      1.038161    1.970167   -0.138047
  H     -0.568290    2.082759   -0.860146
  H     -0.390263    1.964742    0.893743
  H      0.359523   -0.233739   -1.139961
  H      0.654484   -0.347798    0.584338
  H     -2.060012   -0.343710   -2.037299
  H     -3.381095   -0.610960   -0.876200
  H     -2.602930    0.969194   -0.978055
  H     -2.165390   -2.648006   -0.147356
  H     -0.385983   -2.580361   -0.032320
  H     -0.515228   -1.804422    2.297116
  H     -1.586367    0.321164    1.984385

 Total Charge           Charge          ....    0
 Multiplicity           Mult            ....    1
 Number of Electrons    NEL             ....   68
 Basis Dimension        Dim             ....  351

ORBITAL ENERGIES
----------------

  NO   OCC          E(Eh)            E(eV)
   0   2.0000     -15.565173      -423.5499
   1   2.0000     -15.564796      -423.5396
   2   2.0000     -11.310608      -307.7773
   3   2.0000     -11.283087      -307.0284
   4   2.0000     -11.264932      -306.5344
   5   2.0000     -11.249931      -306.1262
   6   2.0000     -11.240716      -305.8754
   7   2.0000     -11.231429      -305.6227
   8   2.0000     -11.221954      -305.3649
   9   2.0000      -1.268056       -34.5056
  10   2.0000      -1.208126       -32.8748
  11   2.0000      -1.071571       -29.1589
  12   2.0000      -1.007638       -27.4192
  13   2.0000      -0.996857       -27.1259
  14   2.0000      -0.920438       -25.0464
  15   2.0000      -0.867409       -23.6034
  16   2.0000      -0.757543       -20.6138
  17   2.0000      -0.712344       -19.3839
  18   2.0000      -0.702450       -19.1146
  19   2.0000      -0.638516       -17.3749
  20   2.0000      -0.614657       -16.7257
  21   2.0000      -0.604237       -16.4421
  22   2.0000      -0.581259       -15.8169
  23   2.0000      -0.556902       -15.1541
  24   2.0000      -0.552660       -15.0386
  25   2.0000      -0.543653       -14.7936
  26   2.0000      -0.529356       -14.4045
  27   2.0000      -0.519671       -14.1410
  28   2.0000      -0.503915       -13.7122
  29   2.0000      -0.486602       -13.2411
  30   2.0000      -0.469586       -12.7781
  31   2.0000      -0.454381       -12.3643
  32   2.0000      -0.437739       -11.9115
  33   2.0000      -0.399927       -10.8826
  34   0.0000       0.112952         3.0736
  35   0.0000       0.139353         3.7920
  36   0.0000       0.141996         3.8639
  37   0.0000       0.161507         4.3948
  38   0.0000       0.166717         4.5366

MULLIKEN ATOMIC CHARGES
-----------------------
   0 C :   -0.412607
   1 C :   -0.269706
   2 C :    0.193292
   3 C :   -0.416361
   4 C :   -0.225882
   5 C :    0.063392
   6 N :   -0.335937
   7 C :   -0.203232
   8 N :   -0.055532
   9 H :    0.144806
  10 H :    0.139272
  11 H :    0.115960
  12 H :    0.117658
  13 H :    0.121205
  14 H :    0.128092
  15 H :    0.141251
  16 H :    0.135284
  17 H :    0.140097
  18 H :    0.139465
  19 H :    0.134766
  20 H :    0.204717
Sum of atomic charges:   -0.0000000

LOEWDIN ATOMIC CHARGES
----------------------
   0 C :   -0.314705
   1 C :   -0.259501
   2 C :   -0.320827
   3 C :   -0.270413
   4 C :   -0.154812
   5 C :   -0.267138
   6 N :    0.062484
   7 C :   -0.170319
   8 N :    0.062485
   9 H :    0.125088
  10 H :    0.123041
  11 H :    0.118270
  12 H :    0.143907
  13 H :    0.141223
  14 H :    0.127980
  15 H :    0.130274
  16 H :    0.127308
  17 H :    0.145007
  18 H :    0.134793
  19 H :    0.156677
  20 H :    0.159177

  Mayer bond orders larger than 0.1
B(  0-C ,  1-C ) :   0.9250 B(  0-C ,  9-H ) :   0.9402 B(  0-C , 10-H ) :   0.9402
B(  0-C , 11-H ) :   0.9336 B(  1-C ,  2-C ) :   0.9427 B(  1-C , 12-H ) :   0.9274
B(  1-C , 13-H ) :   0.9244 B(  2-C ,  3-C ) :   0.8823 B(  2-C ,  4-C ) :   0.8689
B(  2-C ,  6-N ) :   0.9513 B(  3-C , 14-H ) :   0.9347 B(  3-C , 15-H ) :   0.9371
B(  3-C , 16-H ) :   0.9387 B(  4-C ,  5-C ) :   0.9134 B(  4-C , 17-H ) :   0.9203
B(  4-C , 18-H ) :   0.9243 B(  5-C ,  6-N ) :   1.0333 B(  5-C ,  7-C ) :   0.9105
B(  5-C , 19-H ) :   0.9145 B(  6-N , 20-H ) :   0.8823 B(  7-C ,  8-N ) :   2.8851

MP2 TOTAL ENERGY:     -382.596753075 Eh
FINAL SINGLE POINT ENERGY      -382.596753075210

DIPOLE MOMENT
-------------
                                X             Y             Z
Electronic contribution:     -5.09146      -8.57076       8.74696
Nuclear contribution   :      6.55820       9.54705      -9.80326
                        -----------------------------------------
Total Dipole Moment    :      1.46674       0.97629      -1.05630
                        -----------------------------------------
Magnitude (a.u.)       :      2.05432
Magnitude (Debye)      :      5.22167

                             ****ORCA TERMINATED NORMALLY****
TOTAL RUN TIME: 0 days 0 hours 20 minutes 7 seconds 736 msec
