                         Program Version 3.0.3 - RELEASE   -
|  1> ! RI-MP2 RIJK def2-TZVP def2-TZVP/C def2-TZVP/JK TIGHTSCF
|  2> % maxcore 2000
|  3> % mp2 density relaxed end
|  4> *xyz 0 1
|  5>  C       -0.0825253537     1.5685614453     0.0547040550
|  6>  C        0.0300741076     0.0449343887     0.0315125115
|  7>  C       -1.3380934444    -0.5917955718    -0.2203021468
|  8>  C        1.1297774453    -0.5757616889    -0.9116077073
|  9>  C        1.7532525358    -1.2826660744     0.2971853562
| 10>  C        2.1904831337    -0.2691855176     1.3153487903
| 11>  C        0.7336565583    -0.6291305238     1.2308630755
| 12>  H        0.8814345048     2.0487237802     0.2471057153
| 13>  H       -0.4546064717     1.9467313501    -0.9048498449
| 14>  H       -0.7804237368     1.8978602148     0.8334745809
| 15>  H       -1.7498974620    -0.2717212876    -1.1842760182
| 16>  H       -1.2706959790    -1.6848461256    -0.2269660050
| 17>  H       -2.0532277812    -0.3061813972     0.5603932394
| 18>  H        0.7026406730    -1.2549625822    -1.6534935381
| 19>  H        1.7833001244     0.1362185370    -1.4281029386
| 20>  H        2.1286393433    -2.2987174664     0.3054404173
| 21>  H        2.7103719947    -0.6696564476     2.1802512160
| 22>  H        2.5508475005     0.7074470780     1.0007671409
| 23>  H        0.2093072476    -1.0622678510     2.0761755406
| 24> *
| 25>
| 26>                          ****END OF INPUT****

CARTESIAN COORDINATES (ANGSTROEM)
---------------------------------
  C     -0.082525    1.568561    0.054704
  C      0.030074    0.044934    0.031513
  C     -1.338093   -0.591796   -0.220302
  C      1.129777   -0.575762   -0.911608
  C      1.753253   -1.282666    0.297185
  C      2.190483   -0.269186    1.315349
  C      0.733657   -0.629131    1.230863
  H      0.881435    2.048724    0.247106
  H     -0.454606    1.946731   -0.904850
  H     -0.780424    1.897860    0.833475
  H     -1.749897   -0.271721   -1.184276
  H     -1.270696   -1.684846   -0.226966
  H     -2.053228   -0.306181    0.560393
  H      0.702641   -1.254963   -1.653494
  H      1.783300    0.136219   -1.428103
  H      2.128639   -2.298717    0.305440
  H      2.710372   -0.669656    2.180251
  H      2.550848    0.707447    1.000767
  H      0.209307   -1.062268    2.076176

 Total Charge           Charge          ....    0
 Multiplicity           Mult            ....    1
 Number of Electrons    NEL             ....   54
 Basis Dimension        Dim             ....  289

ORBITAL ENERGIES
----------------

  NO   OCC          E(Eh)            E(eV)
   0   2.0000     -11.234450      -305.7049
   1   2.0000     -11.225763      -305.4685
   2   2.0000     -11.223281      -305.4010
   3   2.0000     -11.221148      -305.3430
   4   2.0000     -11.217347      -305.2395
   5   2.0000     -11.209795      -305.0340
   6   2.0000     -11.206932      -304.9561
   7   2.0000      -1.186091       -32.2752
   8   2.0000      -1.041053       -28.3285
   9   2.0000      -0.937329       -25.5060
  10   2.0000      -0.924686       -25.1620
  11   2.0000      -0.835880       -22.7454
  12   2.0000      -0.781509       -21.2659
  13   2.0000      -0.703525       -19.1439
  14   2.0000      -0.666249       -18.1296
  15   2.0000      -0.620636       -16.8884
  16   2.0000      -0.604822       -16.4580
  17   2.0000      -0.572887       -15.5890
  18   2.0000      -0.551118       -14.9967
  19   2.0000      -0.541351       -14.7309
  20   2.0000      -0.521153       -14.1813
  21   2.0000      -0.512564       -13.9476
  22   2.0000      -0.478474       -13.0199
  23   2.0000      -0.445628       -12.1261
  24   2.0000      -0.431457       -11.7406
  25   2.0000      -0.401397       -10.9226
  26   2.0000      -0.369877       -10.0649
  27   0.0000       0.138615         3.7719
  28   0.0000       0.163006         4.4356
  29   0.0000       0.170131         4.6295
  30   0.0000       0.179910         4.8956
  31   0.0000       0.203296         5.5320

MULLIKEN ATOMIC CHARGES
-----------------------
   0 C :   -0.404247
   1 C :    0.155349
   2 C :   -0.449107
   3 C :   -0.259051
   4 C :   -0.133454
   5 C :   -0.272793
   6 C :   -0.136343
   7 H :    0.120668
   8 H :    0.127395
   9 H :    0.126186
  10 H :    0.131693
  11 H :    0.136879
  12 H :    0.126164
  13 H :    0.120982
  14 H :    0.109948
  15 H :    0.126196
  16 H :    0.127561
  17 H :    0.123315
  18 H :    0.122658
Sum of atomic charges:   -0.0000000

LOEWDIN ATOMIC CHARGES
----------------------
   0 C :   -0.273691
   1 C :   -0.281760
   2 C :   -0.270853
   3 C :   -0.176516
   4 C :   -0.184017
   5 C :   -0.210220
   6 C :   -0.153136
   7 H :    0.122166
   8 H :    0.125208
   9 H :    0.125957
  10 H :    0.124946
  11 H :    0.127891
  12 H :    0.124681
  13 H :    0.135539
  14 H :    0.129218
  15 H :    0.131856
  16 H :    0.138810
  17 H :    0.128411
  18 H :    0.135512

  Mayer bond orders larger than 0.1
B(  0-C ,  1-C ) :   0.9224 B(  0-C ,  7-H ) :   0.9312 B(  0-C ,  8-H ) :   0.9360
B(  0-C ,  9-H ) :   0.9386 B(  1-C ,  2-C ) :   0.8847 B(  1-C ,  3-C ) :   0.9262
B(  1-C ,  6-C ) :   0.9100 B(  2-C , 10-H ) :   0.9398 B(  2-C , 11-H ) :   0.9367
B(  2-C , 12-H ) :   0.9385 B(  3-C ,  4-C ) :   0.9449 B(  3-C , 13-H ) :   0.9288
B(  3-C , 14-H ) :   0.9098 B(  4-C ,  5-C ) :   0.8931 B(  4-C ,  6-C ) :   0.8570
B(  4-C , 15-H ) :   0.9307 B(  5-C ,  6-C ) :   0.8773 B(  5-C , 16-H ) :   0.9330
B(  5-C , 17-H ) :   0.9187 B(  6-C , 18-H ) :   0.9241

MP2 TOTAL ENERGY:     -273.254708844 Eh
FINAL SINGLE POINT ENERGY      -273.254708844415

DIPOLE MOMENT
-------------
                                X             Y             Z
Electronic contribution:      2.34261      -1.84174       1.05686
Nuclear contribution   :     -2.38973       1.77404      -1.04643
                        -----------------------------------------
Total Dipole Moment    :     -0.04712      -0.06771       0.01043
                        -----------------------------------------
Magnitude (a.u.)       :      0.08315
Magnitude (Debye)      :      0.21134

                             ****ORCA TERMINATED NORMALLY****
TOTAL RUN TIME: 0 days 0 hours 10 minutes 20 seconds 387 msec
