                         Program Version 3.0.3 - RELEASE   -
|  1> ! RI-MP2 RIJK def2-TZVP def2-TZVP/C def2-TZVP/JK TIGHTSCF
|  2> % maxcore 2000
|  3> % mp2 density relaxed end
|  4> *xyz 0 1
|  5>  O       -0.0506352219     1.4409203809    -0.0961474840
|  6>  C        0.0064494131     0.0363874461     0.0006909845
|  7>  C        0.0122339295    -0.6268159626     1.3975016552
|  8>  C       -1.4916159702    -0.1820798907     1.5853894000
|  9>  C       -2.1992021245    -1.2824255064     2.3638604954
| 10>  N       -3.0322302819    -2.1657765869     1.5014908156
| 11>  C       -1.6056571943    -2.4940728937     1.7670843282
| 12>  C       -0.6537202717    -1.8944743509     0.7413194207
| 13>  C       -1.3610688849    -0.6567765128     0.0968990601
| 14>  H        0.8410791159     1.7854523787     0.0115193911
| 15>  H        0.7062169175    -0.3866721506    -0.7335527581
| 16>  H        0.8047133399    -0.6167735721     2.1499758600
| 17>  H       -1.7173300803     0.8617000836     1.7879617438
| 18>  H       -2.4327584394    -1.1816781049     3.4175683374
| 19>  H       -3.6112756113    -2.7472862985     2.1064352166
| 20>  H       -1.3495394620    -3.3833791324     2.3312955433
| 21>  H       -0.0550481138    -2.5558359575     0.1131956838
| 22>  H       -2.1524226696    -0.6788971594    -0.6488426537
| 23> *
| 24>
| 25>                          ****END OF INPUT****

CARTESIAN COORDINATES (ANGSTROEM)
---------------------------------
  O     -0.050635    1.440920   -0.096147
  C      0.006449    0.036387    0.000691
  C      0.012234   -0.626816    1.397502
  C     -1.491616   -0.182080    1.585389
  C     -2.199202   -1.282426    2.363860
  N     -3.032230   -2.165777    1.501491
  C     -1.605657   -2.494073    1.767084
  C     -0.653720   -1.894474    0.741319
  C     -1.361069   -0.656777    0.096899
  H      0.841079    1.785452    0.011519
  H      0.706217   -0.386672   -0.733553
  H      0.804713   -0.616774    2.149976
  H     -1.717330    0.861700    1.787962
  H     -2.432758   -1.181678    3.417568
  H     -3.611276   -2.747286    2.106435
  H     -1.349539   -3.383379    2.331296
  H     -0.055048   -2.555836    0.113196
  H     -2.152423   -0.678897   -0.648843

 Total Charge           Charge          ....    0
 Multiplicity           Mult            ....    1
 Number of Electrons    NEL             ....   66
 Basis Dimension        Dim             ....  333

ORBITAL ENERGIES
----------------

  NO   OCC          E(Eh)            E(eV)
   0   2.0000     -20.553954      -559.3015
   1   2.0000     -15.555824      -423.2955
   2   2.0000     -11.280273      -306.9518
   3   2.0000     -11.252400      -306.1934
   4   2.0000     -11.250716      -306.1475
   5   2.0000     -11.239511      -305.8426
   6   2.0000     -11.238203      -305.8071
   7   2.0000     -11.234284      -305.7004
   8   2.0000     -11.233214      -305.6713
   9   2.0000      -1.364149       -37.1204
  10   2.0000      -1.276538       -34.7364
  11   2.0000      -1.184857       -32.2416
  12   2.0000      -0.954438       -25.9716
  13   2.0000      -0.935009       -25.4429
  14   2.0000      -0.860432       -23.4135
  15   2.0000      -0.830984       -22.6122
  16   2.0000      -0.772069       -21.0091
  17   2.0000      -0.719657       -19.5829
  18   2.0000      -0.705118       -19.1872
  19   2.0000      -0.676817       -18.4171
  20   2.0000      -0.672463       -18.2987
  21   2.0000      -0.627860       -17.0849
  22   2.0000      -0.582819       -15.8593
  23   2.0000      -0.526387       -14.3237
  24   2.0000      -0.516506       -14.0548
  25   2.0000      -0.502290       -13.6680
  26   2.0000      -0.491441       -13.3728
  27   2.0000      -0.468275       -12.7424
  28   2.0000      -0.445324       -12.1179
  29   2.0000      -0.434535       -11.8243
  30   2.0000      -0.420012       -11.4291
  31   2.0000      -0.409012       -11.1298
  32   2.0000      -0.360706        -9.8153
  33   0.0000       0.140151         3.8137
  34   0.0000       0.143795         3.9129
  35   0.0000       0.163744         4.4557
  36   0.0000       0.166290         4.5250
  37   0.0000       0.190551         5.1852

MULLIKEN ATOMIC CHARGES
-----------------------
   0 O :   -0.469577
   1 C :   -0.015199
   2 C :   -0.113587
   3 C :   -0.058220
   4 C :   -0.125231
   5 N :   -0.368288
   6 C :   -0.121714
   7 C :   -0.086176
   8 C :   -0.055013
   9 H :    0.318008
  10 H :    0.094935
  11 H :    0.136657
  12 H :    0.138689
  13 H :    0.124261
  14 H :    0.209833
  15 H :    0.125754
  16 H :    0.123317
  17 H :    0.141552
Sum of atomic charges:   -0.0000000

LOEWDIN ATOMIC CHARGES
----------------------
   0 O :   -0.013650
   1 C :   -0.296980
   2 C :   -0.125888
   3 C :   -0.135260
   4 C :   -0.225714
   5 N :    0.004098
   6 C :   -0.228544
   7 C :   -0.139829
   8 C :   -0.114256
   9 H :    0.175976
  10 H :    0.127307
  11 H :    0.122535
  12 H :    0.143484
  13 H :    0.133779
  14 H :    0.165905
  15 H :    0.133972
  16 H :    0.139459
  17 H :    0.133607

  Mayer bond orders larger than 0.1
B(  0-O ,  1-C ) :   1.1512 B(  0-O ,  2-C ) :  -0.1329 B(  0-O ,  8-C ) :  -0.1382
B(  0-O ,  9-H ) :   0.8445 B(  1-C ,  2-C ) :   0.8418 B(  1-C ,  8-C ) :   0.8660
B(  1-C , 10-H ) :   0.9959 B(  2-C ,  3-C ) :   0.8836 B(  2-C ,  7-C ) :   0.8605
B(  2-C , 11-H ) :   0.8815 B(  3-C ,  4-C ) :   0.8932 B(  3-C ,  8-C ) :   0.9058
B(  3-C , 12-H ) :   0.8966 B(  4-C ,  5-N ) :   1.0188 B(  4-C ,  6-C ) :   0.9880
B(  4-C , 13-H ) :   0.9250 B(  5-N ,  6-C ) :   1.0304 B(  5-N ,  7-C ) :  -0.1001
B(  5-N , 14-H ) :   0.8758 B(  6-C ,  7-C ) :   0.8795 B(  6-C , 15-H ) :   0.9237
B(  7-C ,  8-C ) :   0.8961 B(  7-C , 16-H ) :   0.9184 B(  8-C , 17-H ) :   0.8826

MP2 TOTAL ENERGY:     -401.185241960 Eh
FINAL SINGLE POINT ENERGY      -401.185241960269

DIPOLE MOMENT
-------------
                                X             Y             Z
Electronic contribution:     -0.44252       0.96547      -0.57962
Nuclear contribution   :      1.18603      -1.36527       1.25685
                        -----------------------------------------
Total Dipole Moment    :      0.74351      -0.39980       0.67722
                        -----------------------------------------
Magnitude (a.u.)       :      1.08225
Magnitude (Debye)      :      2.75087

                             ****ORCA TERMINATED NORMALLY****
TOTAL RUN TIME: 0 days 0 hours 19 minutes 45 seconds 627 msec
