                         Program Version 3.0.3 - RELEASE   -
|  1> ! RI-MP2 RIJK def2-TZVP def2-TZVP/C def2-TZVP/JK TIGHTSCF
|  2> % maxcore 2000
|  3> % mp2 density relaxed end
|  4> *xyz 0 1
|  5>  O       -0.0221874080     1.4247076459    -0.0008256386
|  6>  C       -0.0134626320     0.0293648895    -0.0618447692
|  7>  C        0.3123459085    -0.7187159625    -1.3566156178
|  8>  C       -0.5865097741    -1.8708357168    -0.7820077634
|  9>  C        0.3167184187    -2.7356261543     0.0595658544
| 10>  C        0.9164224594    -2.0975675891     1.0666043280
| 11>  C        0.4159287136    -0.6968656554     1.3034174121
| 12>  C       -1.1205007481    -0.8345850085     1.6123251737
| 13>  C       -1.3362399193    -0.7607611434     0.0997765305
| 14>  H        0.8866613461     1.7302383247     0.0967574840
| 15>  H       -0.1767002368    -0.2032313449    -2.1890061849
| 16>  H        1.3449812859    -0.9692884178    -1.6153097981
| 17>  H       -1.2047557494    -2.4214510209    -1.4897691703
| 18>  H        0.5014761634    -3.7718197453    -0.2021770208
| 19>  H        1.6325019764    -2.5565193465     1.7398800031
| 20>  H        1.0246639795    -0.1007622241     1.9854679387
| 21>  H       -1.4335461152    -1.7206818551     2.1697116507
| 22>  H       -1.5156475829     0.0696035197     2.0829974441
| 23>  H       -2.2803939458    -0.4220054652    -0.3286501363
| 24> *
| 25>
| 26>                          ****END OF INPUT****

CARTESIAN COORDINATES (ANGSTROEM)
---------------------------------
  O     -0.022187    1.424708   -0.000826
  C     -0.013463    0.029365   -0.061845
  C      0.312346   -0.718716   -1.356616
  C     -0.586510   -1.870836   -0.782008
  C      0.316718   -2.735626    0.059566
  C      0.916422   -2.097568    1.066604
  C      0.415929   -0.696866    1.303417
  C     -1.120501   -0.834585    1.612325
  C     -1.336240   -0.760761    0.099777
  H      0.886661    1.730238    0.096757
  H     -0.176700   -0.203231   -2.189006
  H      1.344981   -0.969288   -1.615310
  H     -1.204756   -2.421451   -1.489769
  H      0.501476   -3.771820   -0.202177
  H      1.632502   -2.556519    1.739880
  H      1.024664   -0.100762    1.985468
  H     -1.433546   -1.720682    2.169712
  H     -1.515648    0.069604    2.082997
  H     -2.280394   -0.422005   -0.328650

 Total Charge           Charge          ....    0
 Multiplicity           Mult            ....    1
 Number of Electrons    NEL             ....   66
 Basis Dimension        Dim             ....  339

ORBITAL ENERGIES
----------------

  NO   OCC          E(Eh)            E(eV)
   0   2.0000     -20.559188      -559.4440
   1   2.0000     -11.283140      -307.0298
   2   2.0000     -11.236139      -305.7509
   3   2.0000     -11.233860      -305.6889
   4   2.0000     -11.225944      -305.4735
   5   2.0000     -11.222266      -305.3734
   6   2.0000     -11.220543      -305.3265
   7   2.0000     -11.219029      -305.2853
   8   2.0000     -11.218996      -305.2844
   9   2.0000      -1.369776       -37.2735
  10   2.0000      -1.188901       -32.3516
  11   2.0000      -1.031375       -28.0651
  12   2.0000      -1.028109       -27.9763
  13   2.0000      -0.917723       -24.9725
  14   2.0000      -0.834646       -22.7119
  15   2.0000      -0.810942       -22.0669
  16   2.0000      -0.778160       -21.1748
  17   2.0000      -0.716354       -19.4930
  18   2.0000      -0.679191       -18.4817
  19   2.0000      -0.636385       -17.3169
  20   2.0000      -0.620396       -16.8818
  21   2.0000      -0.610603       -16.6153
  22   2.0000      -0.592667       -16.1273
  23   2.0000      -0.573341       -15.6014
  24   2.0000      -0.540994       -14.7212
  25   2.0000      -0.516934       -14.0665
  26   2.0000      -0.502293       -13.6681
  27   2.0000      -0.476944       -12.9783
  28   2.0000      -0.460868       -12.5408
  29   2.0000      -0.432406       -11.7664
  30   2.0000      -0.402069       -10.9409
  31   2.0000      -0.399499       -10.8709
  32   2.0000      -0.331885        -9.0310
  33   0.0000       0.139154         3.7866
  34   0.0000       0.142708         3.8833
  35   0.0000       0.152876         4.1600
  36   0.0000       0.173271         4.7150
  37   0.0000       0.178059         4.8452

MULLIKEN ATOMIC CHARGES
-----------------------
   0 O :   -0.455081
   1 C :    0.123722
   2 C :   -0.250033
   3 C :    0.027771
   4 C :   -0.235492
   5 C :   -0.262386
   6 C :    0.020833
   7 C :   -0.230117
   8 C :   -0.135298
   9 H :    0.319851
  10 H :    0.117186
  11 H :    0.113188
  12 H :    0.128879
  13 H :    0.122139
  14 H :    0.121334
  15 H :    0.121704
  16 H :    0.115417
  17 H :    0.119779
  18 H :    0.116604
Sum of atomic charges:    0.0000000

LOEWDIN ATOMIC CHARGES
----------------------
   0 O :    0.020344
   1 C :   -0.309948
   2 C :   -0.184605
   3 C :   -0.162675
   4 C :   -0.143438
   5 C :   -0.145447
   6 C :   -0.158871
   7 C :   -0.193930
   8 C :   -0.134514
   9 H :    0.180945
  10 H :    0.143262
  11 H :    0.126182
  12 H :    0.139896
  13 H :    0.138339
  14 H :    0.138225
  15 H :    0.137939
  16 H :    0.126823
  17 H :    0.143382
  18 H :    0.138091

  Mayer bond orders larger than 0.1
B(  0-O ,  1-C ) :   1.0307 B(  0-O ,  9-H ) :   0.8361 B(  1-C ,  2-C ) :   0.9832
B(  1-C ,  6-C ) :   0.8952 B(  1-C ,  8-C ) :   0.9028 B(  2-C ,  3-C ) :   0.9001
B(  2-C , 10-H ) :   0.9163 B(  2-C , 11-H ) :   0.9080 B(  3-C ,  4-C ) :   0.9278
B(  3-C ,  8-C ) :   0.8927 B(  3-C , 12-H ) :   0.9155 B(  4-C ,  5-C ) :   1.7679
B(  4-C , 13-H ) :   0.9355 B(  5-C ,  6-C ) :   0.9040 B(  5-C , 14-H ) :   0.9342
B(  6-C ,  7-C ) :   0.8956 B(  6-C , 15-H ) :   0.9135 B(  7-C ,  8-C ) :   0.9736
B(  7-C , 16-H ) :   0.9100 B(  7-C , 17-H ) :   0.9081 B(  8-C , 18-H ) :   0.8912

MP2 TOTAL ENERGY:     -385.186639076 Eh
FINAL SINGLE POINT ENERGY      -385.186639075628

DIPOLE MOMENT
-------------
                                X             Y             Z
Electronic contribution:      0.42456       1.52156      -0.12652
Nuclear contribution   :     -0.01179      -1.70564       0.14401
                        -----------------------------------------
Total Dipole Moment    :      0.41277      -0.18408       0.01748
                        -----------------------------------------
Magnitude (a.u.)       :      0.45230
Magnitude (Debye)      :      1.14964

                             ****ORCA TERMINATED NORMALLY****
TOTAL RUN TIME: 0 days 0 hours 18 minutes 49 seconds 437 msec
