                         Program Version 3.0.3 - RELEASE   -
|  1> ! RI-MP2 RIJK def2-TZVP def2-TZVP/C def2-TZVP/JK TIGHTSCF
|  2> % maxcore 2000
|  3> % mp2 density relaxed end
|  4> *xyz 0 1
|  5>  N        0.0919337789    -1.0658311400     0.0304115292
|  6>  C        0.0144266474     0.0879361191     0.0077885108
|  7>  C       -0.0294444203     1.5191314317    -0.0239925082
|  8>  O       -1.0994064301     2.1136462321     0.6666214247
|  9>  C       -1.3495895999     3.3874359143     0.0498068305
| 10>  C       -0.0733913368     3.6681527755    -0.7234115719
| 11>  O        1.0218593687     3.6597515453     0.2531894418
| 12>  C        1.2944843087     2.3139487951    -0.0898355638
| 13>  C        0.3662921048     2.2885203767    -1.2666293696
| 14>  H       -2.2287387593     3.3349868145    -0.6089494204
| 15>  H       -1.5229345795     4.1214149185     0.8407071146
| 16>  H       -0.0545335910     4.5450543151    -1.3694394776
| 17>  H        2.2780520933     1.9017438626     0.0991275154
| 18>  H        0.4279805552     1.9211459394    -2.2807374056
| 19> *
| 20>
| 21>                          ****END OF INPUT****

CARTESIAN COORDINATES (ANGSTROEM)
---------------------------------
  N      0.091934   -1.065831    0.030412
  C      0.014427    0.087936    0.007789
  C     -0.029444    1.519131   -0.023993
  O     -1.099406    2.113646    0.666621
  C     -1.349590    3.387436    0.049807
  C     -0.073391    3.668153   -0.723412
  O      1.021859    3.659752    0.253189
  C      1.294484    2.313949   -0.089836
  C      0.366292    2.288520   -1.266629
  H     -2.228739    3.334987   -0.608949
  H     -1.522935    4.121415    0.840707
  H     -0.054534    4.545054   -1.369439
  H      2.278052    1.901744    0.099128
  H      0.427981    1.921146   -2.280737

 Total Charge           Charge          ....    0
 Multiplicity           Mult            ....    1
 Number of Electrons    NEL             ....   64
 Basis Dimension        Dim             ....  309

ORBITAL ENERGIES
----------------

  NO   OCC          E(Eh)            E(eV)
   0   2.0000     -20.594670      -560.4095
   1   2.0000     -20.589660      -560.2731
   2   2.0000     -15.584562      -424.0775
   3   2.0000     -11.351409      -308.8876
   4   2.0000     -11.332907      -308.3841
   5   2.0000     -11.329421      -308.2892
   6   2.0000     -11.307725      -307.6988
   7   2.0000     -11.286312      -307.1162
   8   2.0000     -11.281018      -306.9721
   9   2.0000      -1.460239       -39.7351
  10   2.0000      -1.393118       -37.9087
  11   2.0000      -1.230187       -33.4751
  12   2.0000      -1.152680       -31.3660
  13   2.0000      -1.052815       -28.6486
  14   2.0000      -0.914004       -24.8713
  15   2.0000      -0.891756       -24.2659
  16   2.0000      -0.795387       -21.6436
  17   2.0000      -0.781955       -21.2781
  18   2.0000      -0.715673       -19.4745
  19   2.0000      -0.691322       -18.8118
  20   2.0000      -0.654855       -17.8195
  21   2.0000      -0.646330       -17.5875
  22   2.0000      -0.600497       -16.3403
  23   2.0000      -0.575656       -15.6644
  24   2.0000      -0.569019       -15.4838
  25   2.0000      -0.549094       -14.9416
  26   2.0000      -0.530781       -14.4433
  27   2.0000      -0.498979       -13.5779
  28   2.0000      -0.488011       -13.2795
  29   2.0000      -0.480689       -13.0802
  30   2.0000      -0.439460       -11.9583
  31   2.0000      -0.387240       -10.5373
  32   0.0000       0.131126         3.5681
  33   0.0000       0.146401         3.9838
  34   0.0000       0.149776         4.0756
  35   0.0000       0.157603         4.2886
  36   0.0000       0.165451         4.5021

MULLIKEN ATOMIC CHARGES
-----------------------
   0 N :   -0.040031
   1 C :   -0.251472
   2 C :    0.344940
   3 O :   -0.296463
   4 C :   -0.034435
   5 C :    0.047944
   6 O :   -0.306613
   7 C :    0.033596
   8 C :   -0.220892
   9 H :    0.105745
  10 H :    0.132877
  11 H :    0.151413
  12 H :    0.159894
  13 H :    0.173498
Sum of atomic charges:    0.0000000

LOEWDIN ATOMIC CHARGES
----------------------
   0 N :    0.085176
   1 C :   -0.137434
   2 C :   -0.288470
   3 O :    0.221233
   4 C :   -0.254244
   5 C :   -0.215652
   6 O :    0.187665
   7 C :   -0.190232
   8 C :   -0.111409
   9 H :    0.129869
  10 H :    0.138707
  11 H :    0.145600
  12 H :    0.142572
  13 H :    0.146617

  Mayer bond orders larger than 0.1
B(  0-N ,  1-C ) :   2.8578 B(  1-C ,  2-C ) :   0.8811 B(  2-C ,  3-O ) :   0.9743
B(  2-C ,  7-C ) :   0.8303 B(  2-C ,  8-C ) :   0.8422 B(  3-O ,  4-C ) :   0.9300
B(  4-C ,  5-C ) :   0.9956 B(  4-C ,  9-H ) :   0.9114 B(  4-C , 10-H ) :   0.9059
B(  5-C ,  6-O ) :   0.8837 B(  5-C ,  8-C ) :   0.9248 B(  5-C , 11-H ) :   0.9000
B(  6-O ,  7-C ) :   0.9648 B(  7-C ,  8-C ) :   0.8975 B(  7-C , 12-H ) :   0.9069
B(  8-C , 13-H ) :   0.8886

MP2 TOTAL ENERGY:     -435.913864422 Eh
FINAL SINGLE POINT ENERGY      -435.913864422089

DIPOLE MOMENT
-------------
                                X             Y             Z
Electronic contribution:      1.03570      -3.72083       1.58023
Nuclear contribution   :     -1.09475       5.22425      -2.60965
                        -----------------------------------------
Total Dipole Moment    :     -0.05905       1.50342      -1.02942
                        -----------------------------------------
Magnitude (a.u.)       :      1.82303
Magnitude (Debye)      :      4.63379

                             ****ORCA TERMINATED NORMALLY****
TOTAL RUN TIME: 0 days 0 hours 15 minutes 19 seconds 511 msec
