                         Program Version 3.0.3 - RELEASE   -
|  1> ! RI-MP2 RIJK def2-TZVP def2-TZVP/C def2-TZVP/JK TIGHTSCF
|  2> % maxcore 2000
|  3> % mp2 density relaxed end
|  4> *xyz 0 1
|  5>  O       -0.4725770272     0.6085012971    -1.0565409213
|  6>  C       -0.1073861330     1.1929612387    -0.0639867797
|  7>  C        1.2061228501     1.8810610085     0.0834182224
|  8>  C        1.5410586396     2.4134720644     1.4632630661
|  9>  C        1.8590453896     1.2901954356     2.4775037870
| 10>  C        2.1787411117     1.8014989413     3.8038552759
| 11>  C        2.4380518829     2.2546541841     4.8864917073
| 12>  C        2.3171775975     1.3845150338    -0.8327419821
| 13>  C        1.6367312409     2.6685523545    -1.1571988990
| 14>  H       -0.7735679310     1.2698778339     0.8261450386
| 15>  H        2.4012000178     3.0873941862     1.4027638013
| 16>  H        0.7070145412     3.0140802372     1.8462462008
| 17>  H        1.0055888938     0.6030364721     2.5476260852
| 18>  H        2.6962621465     0.6902777109     2.0992956679
| 19>  H        2.6688262644     2.6400667630     5.8485269010
| 20>  H        3.3265998951     1.4176900542    -0.4370103050
| 21>  H        2.0775182115     0.5206166424    -1.4418584419
| 22>  H        0.9371612713     2.6736032932    -1.9849998979
| 23>  H        2.1613565173     3.6012344789    -0.9813191667
| 24> *
| 25>
| 26>                          ****END OF INPUT****

CARTESIAN COORDINATES (ANGSTROEM)
---------------------------------
  O     -0.472577    0.608501   -1.056541
  C     -0.107386    1.192961   -0.063987
  C      1.206123    1.881061    0.083418
  C      1.541059    2.413472    1.463263
  C      1.859045    1.290195    2.477504
  C      2.178741    1.801499    3.803855
  C      2.438052    2.254654    4.886492
  C      2.317178    1.384515   -0.832742
  C      1.636731    2.668552   -1.157199
  H     -0.773568    1.269878    0.826145
  H      2.401200    3.087394    1.402764
  H      0.707015    3.014080    1.846246
  H      1.005589    0.603036    2.547626
  H      2.696262    0.690278    2.099296
  H      2.668826    2.640067    5.848527
  H      3.326600    1.417690   -0.437010
  H      2.077518    0.520617   -1.441858
  H      0.937161    2.673603   -1.985000
  H      2.161357    3.601234   -0.981319

 Total Charge           Charge          ....    0
 Multiplicity           Mult            ....    1
 Number of Electrons    NEL             ....   66
 Basis Dimension        Dim             ....  339

ORBITAL ENERGIES
----------------

  NO   OCC          E(Eh)            E(eV)
   0   2.0000     -20.553259      -559.2826
   1   2.0000     -11.334393      -308.4245
   2   2.0000     -11.263353      -306.4914
   3   2.0000     -11.256660      -306.3093
   4   2.0000     -11.250732      -306.1480
   5   2.0000     -11.247879      -306.0703
   6   2.0000     -11.244880      -305.9887
   7   2.0000     -11.239569      -305.8442
   8   2.0000     -11.226467      -305.4877
   9   2.0000      -1.394216       -37.9385
  10   2.0000      -1.174463       -31.9588
  11   2.0000      -1.088913       -29.6308
  12   2.0000      -1.010435       -27.4953
  13   2.0000      -0.934071       -25.4174
  14   2.0000      -0.874823       -23.8052
  15   2.0000      -0.840308       -22.8659
  16   2.0000      -0.750936       -20.4340
  17   2.0000      -0.726563       -19.7708
  18   2.0000      -0.699226       -19.0269
  19   2.0000      -0.667684       -18.1686
  20   2.0000      -0.646615       -17.5953
  21   2.0000      -0.626510       -17.0482
  22   2.0000      -0.622543       -16.9403
  23   2.0000      -0.569109       -15.4862
  24   2.0000      -0.553770       -15.0688
  25   2.0000      -0.545927       -14.8554
  26   2.0000      -0.528843       -14.3906
  27   2.0000      -0.516425       -14.0526
  28   2.0000      -0.459521       -12.5042
  29   2.0000      -0.417791       -11.3687
  30   2.0000      -0.415893       -11.3170
  31   2.0000      -0.392139       -10.6706
  32   2.0000      -0.387924       -10.5560
  33   0.0000       0.115373         3.1395
  34   0.0000       0.131770         3.5856
  35   0.0000       0.156270         4.2523
  36   0.0000       0.158032         4.3003
  37   0.0000       0.164153         4.4668

MULLIKEN ATOMIC CHARGES
-----------------------
   0 O :   -0.287269
   1 C :    0.053948
   2 C :    0.125631
   3 C :   -0.231606
   4 C :   -0.415174
   5 C :   -0.008340
   6 C :   -0.115772
   7 C :   -0.279525
   8 C :   -0.278348
   9 H :    0.083333
  10 H :    0.131202
  11 H :    0.139862
  12 H :    0.149220
  13 H :    0.152313
  14 H :    0.191766
  15 H :    0.140910
  16 H :    0.154074
  17 H :    0.153085
  18 H :    0.140691
Sum of atomic charges:    0.0000000

LOEWDIN ATOMIC CHARGES
----------------------
   0 O :    0.128252
   1 C :   -0.262664
   2 C :   -0.250127
   3 C :   -0.208022
   4 C :   -0.241778
   5 C :   -0.113074
   6 C :   -0.105100
   7 C :   -0.189077
   8 C :   -0.181529
   9 H :    0.118571
  10 H :    0.150949
  11 H :    0.149867
  12 H :    0.157496
  13 H :    0.158550
  14 H :    0.126623
  15 H :    0.137769
  16 H :    0.143983
  17 H :    0.142688
  18 H :    0.136621

  Mayer bond orders larger than 0.1
B(  0-O ,  1-C ) :   1.9635 B(  1-C ,  2-C ) :   0.8956 B(  1-C ,  9-H ) :   0.9547
B(  2-C ,  3-C ) :   0.8789 B(  2-C ,  7-C ) :   0.8230 B(  2-C ,  8-C ) :   0.8218
B(  3-C ,  4-C ) :   0.9205 B(  3-C , 10-H ) :   0.9329 B(  3-C , 11-H ) :   0.9265
B(  4-C ,  5-C ) :   1.1066 B(  4-C ,  6-C ) :  -0.1227 B(  4-C , 12-H ) :   0.9195
B(  4-C , 13-H ) :   0.9296 B(  5-C ,  6-C ) :   2.6211 B(  6-C , 14-H ) :   0.8930
B(  7-C ,  8-C ) :   0.9524 B(  7-C , 15-H ) :   0.9283 B(  7-C , 16-H ) :   0.9145
B(  8-C , 17-H ) :   0.9196 B(  8-C , 18-H ) :   0.9247

MP2 TOTAL ENERGY:     -385.168114091 Eh
FINAL SINGLE POINT ENERGY      -385.168114091451

DIPOLE MOMENT
-------------
                                X             Y             Z
Electronic contribution:     -2.75223      -1.76539       0.59977
Nuclear contribution   :      3.31042       2.30514      -0.19397
                        -----------------------------------------
Total Dipole Moment    :      0.55819       0.53975       0.40580
                        -----------------------------------------
Magnitude (a.u.)       :      0.87612
Magnitude (Debye)      :      2.22691

                             ****ORCA TERMINATED NORMALLY****
TOTAL RUN TIME: 0 days 0 hours 17 minutes 19 seconds 688 msec
