                         Program Version 3.0.3 - RELEASE   -
|  1> ! RI-MP2 RIJK def2-TZVP def2-TZVP/C def2-TZVP/JK TIGHTSCF
|  2> % maxcore 2000
|  3> % mp2 density relaxed end
|  4> *xyz 0 1
|  5>  C       -0.0903800472    -0.9215466447    -0.8337079085
|  6>  C        0.0051959185     0.0983285354    -0.2074460392
|  7>  C        0.1062460916     1.3419804894     0.5604607920
|  8>  C        1.4031559339     2.0099504862     0.4374881005
|  9>  C        2.4697034906     2.5607245987     0.3388957061
| 10>  C        3.7412777071     3.2141508301     0.2267286723
| 11>  C        4.4981352749     3.1932581122    -1.0924408660
| 12>  C        3.8856325953     4.4748584180    -0.6121599331
| 13>  H       -0.1685772565    -1.8233582537    -1.3885236063
| 14>  H       -0.6943762819     2.0254471129     0.2442731548
| 15>  H       -0.0949136048     1.1277101405     1.6194978651
| 16>  H        4.3565404900     3.1725605079     1.1209706589
| 17>  H        5.5752930432     3.0810526757    -1.0431133071
| 18>  H        4.0254892098     2.6805999787    -1.9214837556
| 19>  H        2.9962742863     4.8349353135    -1.1152019357
| 20>  H        4.5379050592     5.2519752893    -0.2300566680
| 21> *
| 22>
| 23>                          ****END OF INPUT****

CARTESIAN COORDINATES (ANGSTROEM)
---------------------------------
  C     -0.090380   -0.921547   -0.833708
  C      0.005196    0.098329   -0.207446
  C      0.106246    1.341980    0.560461
  C      1.403156    2.009950    0.437488
  C      2.469703    2.560725    0.338896
  C      3.741278    3.214151    0.226729
  C      4.498135    3.193258   -1.092441
  C      3.885633    4.474858   -0.612160
  H     -0.168577   -1.823358   -1.388524
  H     -0.694376    2.025447    0.244273
  H     -0.094914    1.127710    1.619498
  H      4.356540    3.172561    1.120971
  H      5.575293    3.081053   -1.043113
  H      4.025489    2.680600   -1.921484
  H      2.996274    4.834935   -1.115202
  H      4.537905    5.251975   -0.230057

 Total Charge           Charge          ....    0
 Multiplicity           Mult            ....    1
 Number of Electrons    NEL             ....   56
 Basis Dimension        Dim             ....  296

ORBITAL ENERGIES
----------------

  NO   OCC          E(Eh)            E(eV)
   0   2.0000     -11.281620      -306.9885
   1   2.0000     -11.255802      -306.2859
   2   2.0000     -11.238057      -305.8031
   3   2.0000     -11.237619      -305.7912
   4   2.0000     -11.236855      -305.7704
   5   2.0000     -11.226905      -305.4996
   6   2.0000     -11.223226      -305.3995
   7   2.0000     -11.222913      -305.3910
   8   2.0000      -1.156611       -31.4730
   9   2.0000      -1.093220       -29.7480
  10   2.0000      -1.018341       -27.7105
  11   2.0000      -0.964332       -26.2408
  12   2.0000      -0.856310       -23.3014
  13   2.0000      -0.830685       -22.6041
  14   2.0000      -0.731096       -19.8941
  15   2.0000      -0.702487       -19.1156
  16   2.0000      -0.663489       -18.0544
  17   2.0000      -0.647258       -17.6128
  18   2.0000      -0.635870       -17.3029
  19   2.0000      -0.617119       -16.7927
  20   2.0000      -0.555736       -15.1224
  21   2.0000      -0.525257       -14.2930
  22   2.0000      -0.473652       -12.8887
  23   2.0000      -0.455347       -12.3906
  24   2.0000      -0.396682       -10.7943
  25   2.0000      -0.394664       -10.7393
  26   2.0000      -0.366256        -9.9663
  27   2.0000      -0.350611        -9.5406
  28   0.0000       0.138142         3.7590
  29   0.0000       0.149699         4.0735
  30   0.0000       0.166595         4.5333
  31   0.0000       0.169991         4.6257
  32   0.0000       0.173261         4.7147

MULLIKEN ATOMIC CHARGES
-----------------------
   0 C :   -0.147944
   1 C :    0.003051
   2 C :   -0.450568
   3 C :    0.030724
   4 C :    0.045380
   5 C :   -0.241925
   6 C :   -0.231926
   7 C :   -0.233091
   8 H :    0.191222
   9 H :    0.173664
  10 H :    0.174881
  11 H :    0.137308
  12 H :    0.133503
  13 H :    0.142722
  14 H :    0.139771
  15 H :    0.133230
Sum of atomic charges:   -0.0000000

LOEWDIN ATOMIC CHARGES
----------------------
   0 C :   -0.098953
   1 C :   -0.095366
   2 C :   -0.235182
   3 C :   -0.059564
   4 C :   -0.058058
   5 C :   -0.214722
   6 C :   -0.206758
   7 C :   -0.208162
   8 H :    0.126910
   9 H :    0.173579
  10 H :    0.174663
  11 H :    0.161377
  12 H :    0.132485
  13 H :    0.138236
  14 H :    0.137206
  15 H :    0.132309

  Mayer bond orders larger than 0.1
B(  0-C ,  1-C ) :   2.6167 B(  0-C ,  8-H ) :   0.9065 B(  1-C ,  2-C ) :   1.0803
B(  2-C ,  3-C ) :   0.9963 B(  2-C ,  9-H ) :   0.9288 B(  2-C , 10-H ) :   0.9328
B(  3-C ,  4-C ) :   2.5684 B(  3-C ,  5-C ) :  -0.1243 B(  4-C ,  5-C ) :   1.1031
B(  5-C ,  6-C ) :   0.8611 B(  5-C ,  7-C ) :   0.8643 B(  5-C , 11-H ) :   0.9344
B(  6-C ,  7-C ) :   0.9025 B(  6-C , 12-H ) :   0.9301 B(  6-C , 13-H ) :   0.9319
B(  7-C , 14-H ) :   0.9324 B(  7-C , 15-H ) :   0.9298

MP2 TOTAL ENERGY:     -308.790848022 Eh
FINAL SINGLE POINT ENERGY      -308.790848022005

DIPOLE MOMENT
-------------
                                X             Y             Z
Electronic contribution:     -3.76271      -3.53607       1.34284
Nuclear contribution   :      3.90762       3.79038      -1.32553
                        -----------------------------------------
Total Dipole Moment    :      0.14490       0.25431       0.01731
                        -----------------------------------------
Magnitude (a.u.)       :      0.29320
Magnitude (Debye)      :      0.74527

                             ****ORCA TERMINATED NORMALLY****
TOTAL RUN TIME: 0 days 0 hours 9 minutes 25 seconds 340 msec
