                         Program Version 3.0.3 - RELEASE   -
|  1> ! RI-MP2 RIJK def2-TZVP def2-TZVP/C def2-TZVP/JK TIGHTSCF
|  2> % maxcore 2000
|  3> % mp2 density relaxed end
|  4> *xyz 0 1
|  5>  C       -0.0907501069     1.4247655465    -0.0209134476
|  6>  O       -0.0065485757     0.0016573307    -0.0020381229
|  7>  C       -1.1843896233    -0.6482524567     0.0052978570
|  8>  C       -1.3413330030    -2.0216787608     0.0274882608
|  9>  C       -0.3538850319    -3.1353074316     0.0489414743
| 10>  N       -2.6965599917    -2.1625660648     0.0252920951
| 11>  C       -3.4759215040    -3.3808561526     0.0427644310
| 12>  N       -3.3203578000    -0.9733720459     0.0041632440
| 13>  N       -2.3929459838    -0.0444344383    -0.0084394378
| 14>  H        0.9394474598     1.7838234014    -0.0232478687
| 15>  H       -0.6152974786     1.7769565016    -0.9150242659
| 16>  H       -0.6193778469     1.8002416601     0.8612712246
| 17>  H       -0.4555262764    -3.7640306994     0.9416279964
| 18>  H       -0.4452070236    -3.7890937187    -0.8267224279
| 19>  H        0.6538933954    -2.7146914293     0.0487952231
| 20>  H       -3.2653294859    -3.9648308831     0.9438183804
| 21>  H       -4.5259246859    -3.0891611315     0.0344097250
| 22>  H       -3.2592861877    -3.9942467074    -0.8370563610
| 23> *
| 24>
| 25>                          ****END OF INPUT****

CARTESIAN COORDINATES (ANGSTROEM)
---------------------------------
  C     -0.090750    1.424766   -0.020913
  O     -0.006549    0.001657   -0.002038
  C     -1.184390   -0.648252    0.005298
  C     -1.341333   -2.021679    0.027488
  C     -0.353885   -3.135307    0.048941
  N     -2.696560   -2.162566    0.025292
  C     -3.475922   -3.380856    0.042764
  N     -3.320358   -0.973372    0.004163
  N     -2.392946   -0.044434   -0.008439
  H      0.939447    1.783823   -0.023248
  H     -0.615297    1.776957   -0.915024
  H     -0.619378    1.800242    0.861271
  H     -0.455526   -3.764031    0.941628
  H     -0.445207   -3.789094   -0.826722
  H      0.653893   -2.714691    0.048795
  H     -3.265329   -3.964831    0.943818
  H     -4.525925   -3.089161    0.034410
  H     -3.259286   -3.994247   -0.837056

 Total Charge           Charge          ....    0
 Multiplicity           Mult            ....    1
 Number of Electrons    NEL             ....   68
 Basis Dimension        Dim             ....  333

ORBITAL ENERGIES
----------------

  NO   OCC          E(Eh)            E(eV)
   0   2.0000     -20.580901      -560.0348
   1   2.0000     -15.653905      -425.9644
   2   2.0000     -15.627076      -425.2343
   3   2.0000     -15.580313      -423.9619
   4   2.0000     -11.301587      -307.5318
   5   2.0000     -11.283780      -307.0473
   6   2.0000     -11.274036      -306.7821
   7   2.0000     -11.270266      -306.6795
   8   2.0000     -11.245638      -306.0094
   9   2.0000      -1.438429       -39.1416
  10   2.0000      -1.399674       -38.0871
  11   2.0000      -1.211167       -32.9575
  12   2.0000      -1.089963       -29.6594
  13   2.0000      -0.993150       -27.0250
  14   2.0000      -0.970898       -26.4195
  15   2.0000      -0.943833       -25.6830
  16   2.0000      -0.806430       -21.9441
  17   2.0000      -0.798525       -21.7290
  18   2.0000      -0.711231       -19.3536
  19   2.0000      -0.681677       -18.5494
  20   2.0000      -0.659469       -17.9451
  21   2.0000      -0.643176       -17.5017
  22   2.0000      -0.626445       -17.0464
  23   2.0000      -0.585617       -15.9354
  24   2.0000      -0.579791       -15.7769
  25   2.0000      -0.575733       -15.6665
  26   2.0000      -0.565012       -15.3747
  27   2.0000      -0.556934       -15.1549
  28   2.0000      -0.518972       -14.1219
  29   2.0000      -0.501997       -13.6600
  30   2.0000      -0.491869       -13.3844
  31   2.0000      -0.429142       -11.6775
  32   2.0000      -0.390645       -10.6300
  33   2.0000      -0.313948        -8.5430
  34   0.0000       0.123547         3.3619
  35   0.0000       0.140643         3.8271
  36   0.0000       0.164534         4.4772
  37   0.0000       0.171436         4.6650
  38   0.0000       0.187409         5.0997

MULLIKEN ATOMIC CHARGES
-----------------------
   0 C :   -0.203460
   1 O :   -0.306090
   2 C :    0.202064
   3 C :   -0.040073
   4 C :   -0.412805
   5 N :    0.162486
   6 C :   -0.335552
   7 N :   -0.234723
   8 N :   -0.188948
   9 H :    0.139309
  10 H :    0.134192
  11 H :    0.133993
  12 H :    0.146180
  13 H :    0.146341
  14 H :    0.171451
  15 H :    0.151984
  16 H :    0.181660
  17 H :    0.151988
Sum of atomic charges:    0.0000000

LOEWDIN ATOMIC CHARGES
----------------------
   0 C :   -0.318536
   1 O :    0.218117
   2 C :   -0.386272
   3 C :   -0.239388
   4 C :   -0.272704
   5 N :    0.176930
   6 C :   -0.270530
   7 N :   -0.047397
   8 N :    0.004442
   9 H :    0.112375
  10 H :    0.111845
  11 H :    0.111822
  12 H :    0.133010
  13 H :    0.133039
  14 H :    0.145396
  15 H :    0.125316
  16 H :    0.137203
  17 H :    0.125331

  Mayer bond orders larger than 0.1
B(  0-C ,  1-O ) :   0.8547 B(  0-C ,  9-H ) :   0.9349 B(  0-C , 10-H ) :   0.9374
B(  0-C , 11-H ) :   0.9373 B(  1-O ,  2-C ) :   1.1116 B(  2-C ,  3-C ) :   1.3779
B(  2-C ,  8-N ) :   1.3802 B(  3-C ,  4-C ) :   0.8641 B(  3-C ,  5-N ) :   1.2075
B(  3-C ,  7-N ) :   0.1462 B(  4-C , 12-H ) :   0.9347 B(  4-C , 13-H ) :   0.9347
B(  4-C , 14-H ) :   0.9396 B(  5-N ,  6-C ) :   0.8553 B(  5-N ,  7-N ) :   1.0050
B(  6-C , 15-H ) :   0.9286 B(  6-C , 16-H ) :   0.9231 B(  6-C , 17-H ) :   0.9286
B(  7-N ,  8-N ) :   1.1983

MP2 TOTAL ENERGY:     -434.543448157 Eh
FINAL SINGLE POINT ENERGY      -434.543448156552

DIPOLE MOMENT
-------------
                                X             Y             Z
Electronic contribution:     -2.32680       3.41956      -0.07302
Nuclear contribution   :      2.87602      -4.73303       0.09819
                        -----------------------------------------
Total Dipole Moment    :      0.54922      -1.31347       0.02517
                        -----------------------------------------
Magnitude (a.u.)       :      1.42389
Magnitude (Debye)      :      3.61925

                             ****ORCA TERMINATED NORMALLY****
TOTAL RUN TIME: 0 days 0 hours 17 minutes 52 seconds 838 msec
