                         Program Version 3.0.3 - RELEASE   -
|  1> ! RI-MP2 RIJK def2-TZVP def2-TZVP/C def2-TZVP/JK TIGHTSCF
|  2> % maxcore 2000
|  3> % mp2 density relaxed end
|  4> *xyz 0 1
|  5>  C        0.2113357231     1.3986125382     0.1766099595
|  6>  O       -0.3066412600     0.1378163927    -0.1981729084
|  7>  C        0.4327353358    -0.4878856980    -1.1992778335
|  8>  C        1.6692475493    -1.3841009395    -0.8716947237
|  9>  C        0.7380974756    -2.3996785104    -0.1789417430
| 10>  C        0.0795414012    -1.9631928171    -1.5186843688
| 11>  C       -1.1049803647    -2.5227856735    -2.2392225652
| 12>  O        1.4206258385    -2.0560835465    -2.1629862668
| 13>  H        1.2148026820     1.3140734742     0.6185431416
| 14>  H        0.2685932743     2.0819821210    -0.6838530184
| 15>  H       -0.4685949512     1.8205156873     0.9200271234
| 16>  H        0.5729983305     0.1437977164    -2.0863338038
| 17>  H        2.6995413821    -1.1127028374    -0.6431300011
| 18>  H        1.1072756319    -3.4262913015    -0.1634929590
| 19>  H        0.2462519605    -2.0949796282     0.7457076954
| 20>  H       -2.0152955759    -2.3272979978    -1.6641422234
| 21>  H       -1.2096636677    -2.0569960432    -3.2238611696
| 22>  H       -1.0024476153    -3.6037196669    -2.3730483153
| 23> *
| 24>
| 25>                          ****END OF INPUT****

CARTESIAN COORDINATES (ANGSTROEM)
---------------------------------
  C      0.211336    1.398613    0.176610
  O     -0.306641    0.137816   -0.198173
  C      0.432735   -0.487886   -1.199278
  C      1.669248   -1.384101   -0.871695
  C      0.738097   -2.399679   -0.178942
  C      0.079541   -1.963193   -1.518684
  C     -1.104980   -2.522786   -2.239223
  O      1.420626   -2.056084   -2.162986
  H      1.214803    1.314073    0.618543
  H      0.268593    2.081982   -0.683853
  H     -0.468595    1.820516    0.920027
  H      0.572998    0.143798   -2.086334
  H      2.699541   -1.112703   -0.643130
  H      1.107276   -3.426291   -0.163493
  H      0.246252   -2.094980    0.745708
  H     -2.015296   -2.327298   -1.664142
  H     -1.209664   -2.056996   -3.223861
  H     -1.002448   -3.603720   -2.373048

 Total Charge           Charge          ....    0
 Multiplicity           Mult            ....    1
 Number of Electrons    NEL             ....   62
 Basis Dimension        Dim             ....  308

ORBITAL ENERGIES
----------------

  NO   OCC          E(Eh)            E(eV)
   0   2.0000     -20.566842      -559.6522
   1   2.0000     -20.545708      -559.0771
   2   2.0000     -11.299492      -307.4748
   3   2.0000     -11.293118      -307.3014
   4   2.0000     -11.288819      -307.1844
   5   2.0000     -11.279826      -306.9397
   6   2.0000     -11.229048      -305.5579
   7   2.0000     -11.222417      -305.3775
   8   2.0000      -1.406875       -38.2830
   9   2.0000      -1.375576       -37.4313
  10   2.0000      -1.067481       -29.0476
  11   2.0000      -0.999962       -27.2103
  12   2.0000      -0.953584       -25.9483
  13   2.0000      -0.892848       -24.2956
  14   2.0000      -0.834601       -22.7107
  15   2.0000      -0.744811       -20.2674
  16   2.0000      -0.674775       -18.3616
  17   2.0000      -0.661392       -17.9974
  18   2.0000      -0.652908       -17.7665
  19   2.0000      -0.641438       -17.4544
  20   2.0000      -0.590705       -16.0739
  21   2.0000      -0.587169       -15.9777
  22   2.0000      -0.573954       -15.6181
  23   2.0000      -0.537637       -14.6298
  24   2.0000      -0.512534       -13.9468
  25   2.0000      -0.507190       -13.8013
  26   2.0000      -0.477233       -12.9862
  27   2.0000      -0.466902       -12.7051
  28   2.0000      -0.449785       -12.2393
  29   2.0000      -0.422791       -11.5047
  30   2.0000      -0.400214       -10.8904
  31   0.0000       0.141641         3.8542
  32   0.0000       0.150691         4.1005
  33   0.0000       0.176865         4.8127
  34   0.0000       0.189173         5.1477
  35   0.0000       0.196198         5.3388

MULLIKEN ATOMIC CHARGES
-----------------------
   0 C :   -0.217304
   1 O :   -0.312720
   2 C :    0.134037
   3 C :   -0.082884
   4 C :   -0.141101
   5 C :    0.067193
   6 C :   -0.418573
   7 O :   -0.313295
   8 H :    0.116223
   9 H :    0.118012
  10 H :    0.142987
  11 H :    0.092781
  12 H :    0.140319
  13 H :    0.115037
  14 H :    0.124282
  15 H :    0.147918
  16 H :    0.142030
  17 H :    0.145058
Sum of atomic charges:   -0.0000000

LOEWDIN ATOMIC CHARGES
----------------------
   0 C :   -0.347866
   1 O :    0.164424
   2 C :   -0.268492
   3 C :   -0.223025
   4 C :   -0.180886
   5 C :   -0.277285
   6 C :   -0.270350
   7 O :    0.149469
   8 H :    0.103371
   9 H :    0.104639
  10 H :    0.114451
  11 H :    0.135835
  12 H :    0.121286
  13 H :    0.132584
  14 H :    0.133296
  15 H :    0.138591
  16 H :    0.135287
  17 H :    0.134671

  Mayer bond orders larger than 0.1
B(  0-C ,  1-O ) :   0.9022 B(  0-C ,  8-H ) :   0.9356 B(  0-C ,  9-H ) :   0.9377
B(  0-C , 10-H ) :   0.9402 B(  1-O ,  2-C ) :   0.9910 B(  2-C ,  3-C ) :   0.9141
B(  2-C ,  5-C ) :   0.9078 B(  2-C , 11-H ) :   0.9219 B(  3-C ,  4-C ) :   0.9362
B(  3-C ,  7-O ) :   0.9288 B(  3-C , 12-H ) :   0.8865 B(  4-C ,  5-C ) :   0.8963
B(  4-C , 13-H ) :   0.9217 B(  4-C , 14-H ) :   0.9029 B(  5-C ,  6-C ) :   0.8274
B(  5-C ,  7-O ) :   0.9156 B(  6-C , 15-H ) :   0.9383 B(  6-C , 16-H ) :   0.9383
B(  6-C , 17-H ) :   0.9405

MP2 TOTAL ENERGY:     -384.231636341 Eh
FINAL SINGLE POINT ENERGY      -384.231636341117

DIPOLE MOMENT
-------------
                                X             Y             Z
Electronic contribution:      2.10991      -1.38789      -1.06365
Nuclear contribution   :     -2.25080       1.87064       1.54070
                        -----------------------------------------
Total Dipole Moment    :     -0.14089       0.48275       0.47705
                        -----------------------------------------
Magnitude (a.u.)       :      0.69316
Magnitude (Debye)      :      1.76188

                             ****ORCA TERMINATED NORMALLY****
TOTAL RUN TIME: 0 days 0 hours 12 minutes 56 seconds 466 msec
