                         Program Version 3.0.3 - RELEASE   -
|  1> ! RI-MP2 RIJK def2-TZVP def2-TZVP/C def2-TZVP/JK TIGHTSCF
|  2> % maxcore 2000
|  3> % mp2 density relaxed end
|  4> *xyz 0 1
|  5>  C        0.2619298886     1.4983391879     0.1510492144
|  6>  C        0.0676591002    -0.0126818098     0.0165382062
|  7>  O        0.8260608141    -0.7225790066     0.9844127989
|  8>  C       -1.4064988769    -0.4351113648     0.0690792664
|  9>  C       -1.6697076139    -1.9702989015     0.0616051369
| 10>  C       -2.2937524643    -1.8290333245     1.4759850105
| 11>  N       -1.9971609843    -0.3870725058     1.4294098588
| 12>  C       -2.7269244240     0.5889937958     2.0347046534
| 13>  O       -3.4917457923     0.3986847791     2.9560342362
| 14>  H        1.3264492358     1.7414818845     0.1071465713
| 15>  H       -0.2534549621     2.0403137703    -0.6489051306
| 16>  H       -0.1270917857     1.8584665054     1.1104342355
| 17>  H        0.4611137611    -0.3414448899    -0.9538997192
| 18>  H        0.4450184349    -0.5076162064     1.8451767211
| 19>  H       -1.9866916046     0.1306320973    -0.6696818139
| 20>  H       -2.3607385841    -2.3089092978    -0.7103339048
| 21>  H       -0.7554245926    -2.5618614410     0.0305137437
| 22>  H       -3.3662090745    -2.0293599681     1.5521092374
| 23>  H       -1.7768139680    -2.3581737799     2.2811058190
| 24>  H       -2.5336493874     1.5903499359     1.5984815987
| 25> *
| 26>
| 27>                          ****END OF INPUT****

CARTESIAN COORDINATES (ANGSTROEM)
---------------------------------
  C      0.261930    1.498339    0.151049
  C      0.067659   -0.012682    0.016538
  O      0.826061   -0.722579    0.984413
  C     -1.406499   -0.435111    0.069079
  C     -1.669708   -1.970299    0.061605
  C     -2.293752   -1.829033    1.475985
  N     -1.997161   -0.387073    1.429410
  C     -2.726924    0.588994    2.034705
  O     -3.491746    0.398685    2.956034
  H      1.326449    1.741482    0.107147
  H     -0.253455    2.040314   -0.648905
  H     -0.127092    1.858467    1.110434
  H      0.461114   -0.341445   -0.953900
  H      0.445018   -0.507616    1.845177
  H     -1.986692    0.130632   -0.669682
  H     -2.360739   -2.308909   -0.710334
  H     -0.755425   -2.561861    0.030514
  H     -3.366209   -2.029360    1.552109
  H     -1.776814   -2.358174    2.281106
  H     -2.533649    1.590350    1.598482

 Total Charge           Charge          ....    0
 Multiplicity           Mult            ....    1
 Number of Electrons    NEL             ....   70
 Basis Dimension        Dim             ....  345

ORBITAL ENERGIES
----------------

  NO   OCC          E(Eh)            E(eV)
   0   2.0000     -20.563095      -559.5503
   1   2.0000     -20.527440      -558.5801
   2   2.0000     -15.587727      -424.1636
   3   2.0000     -11.348693      -308.8136
   4   2.0000     -11.294520      -307.3395
   5   2.0000     -11.287373      -307.1450
   6   2.0000     -11.272104      -306.7296
   7   2.0000     -11.242242      -305.9170
   8   2.0000     -11.231117      -305.6142
   9   2.0000      -1.387114       -37.7453
  10   2.0000      -1.373127       -37.3647
  11   2.0000      -1.271764       -34.6065
  12   2.0000      -1.056209       -28.7409
  13   2.0000      -1.031776       -28.0761
  14   2.0000      -0.945796       -25.7364
  15   2.0000      -0.858886       -23.3715
  16   2.0000      -0.839408       -22.8415
  17   2.0000      -0.758658       -20.6441
  18   2.0000      -0.719162       -19.5694
  19   2.0000      -0.706260       -19.2183
  20   2.0000      -0.656037       -17.8517
  21   2.0000      -0.645031       -17.5522
  22   2.0000      -0.628991       -17.1157
  23   2.0000      -0.601922       -16.3791
  24   2.0000      -0.573555       -15.6072
  25   2.0000      -0.566759       -15.4223
  26   2.0000      -0.556655       -15.1474
  27   2.0000      -0.539074       -14.6690
  28   2.0000      -0.532525       -14.4907
  29   2.0000      -0.513020       -13.9600
  30   2.0000      -0.491808       -13.3828
  31   2.0000      -0.483792       -13.1646
  32   2.0000      -0.451076       -12.2744
  33   2.0000      -0.428915       -11.6714
  34   2.0000      -0.385044       -10.4776
  35   0.0000       0.124816         3.3964
  36   0.0000       0.135001         3.6736
  37   0.0000       0.144679         3.9369
  38   0.0000       0.157795         4.2938
  39   0.0000       0.173163         4.7120

MULLIKEN ATOMIC CHARGES
-----------------------
   0 C :   -0.407074
   1 C :    0.090609
   2 O :   -0.472302
   3 C :   -0.037642
   4 C :   -0.183978
   5 C :   -0.174381
   6 N :   -0.153830
   7 C :    0.117875
   8 O :   -0.343778
   9 H :    0.151707
  10 H :    0.127772
  11 H :    0.126506
  12 H :    0.103185
  13 H :    0.320878
  14 H :    0.119958
  15 H :    0.128001
  16 H :    0.138250
  17 H :    0.134240
  18 H :    0.128995
  19 H :    0.085010
Sum of atomic charges:    0.0000000

LOEWDIN ATOMIC CHARGES
----------------------
   0 C :   -0.301435
   1 C :   -0.361969
   2 O :   -0.010408
   3 C :   -0.215090
   4 C :   -0.207432
   5 C :   -0.217208
   6 N :    0.175951
   7 C :   -0.427516
   8 O :    0.070218
   9 H :    0.129548
  10 H :    0.126342
  11 H :    0.122576
  12 H :    0.150238
  13 H :    0.177371
  14 H :    0.146081
  15 H :    0.131340
  16 H :    0.140478
  17 H :    0.131418
  18 H :    0.128230
  19 H :    0.111265

  Mayer bond orders larger than 0.1
B(  0-C ,  1-C ) :   0.9281 B(  0-C ,  9-H ) :   0.9376 B(  0-C , 10-H ) :   0.9296
B(  0-C , 11-H ) :   0.9275 B(  1-C ,  2-O ) :   0.8968 B(  1-C ,  3-C ) :   0.9171
B(  1-C , 12-H ) :   0.9200 B(  2-O , 13-H ) :   0.8305 B(  3-C ,  4-C ) :   0.9231
B(  3-C ,  6-N ) :   0.8481 B(  3-C , 14-H ) :   0.9092 B(  4-C ,  5-C ) :   0.9448
B(  4-C , 15-H ) :   0.9259 B(  4-C , 16-H ) :   0.9119 B(  5-C ,  6-N ) :   0.8675
B(  5-C , 17-H ) :   0.9219 B(  5-C , 18-H ) :   0.9298 B(  6-N ,  7-C ) :   1.1124
B(  7-C ,  8-O ) :   1.9271 B(  7-C , 19-H ) :   0.9276

MP2 TOTAL ENERGY:     -439.577985779 Eh
FINAL SINGLE POINT ENERGY      -439.577985779172

DIPOLE MOMENT
-------------
                                X             Y             Z
Electronic contribution:     -3.36401      -0.62944       4.28794
Nuclear contribution   :      3.72231       0.56857      -5.50962
                        -----------------------------------------
Total Dipole Moment    :      0.35830      -0.06088      -1.22168
                        -----------------------------------------
Magnitude (a.u.)       :      1.27459
Magnitude (Debye)      :      3.23975

                             ****ORCA TERMINATED NORMALLY****
TOTAL RUN TIME: 0 days 0 hours 19 minutes 38 seconds 233 msec
