                         Program Version 3.0.3 - RELEASE   -
|  1> ! RI-MP2 RIJK def2-TZVP def2-TZVP/C def2-TZVP/JK TIGHTSCF
|  2> % maxcore 2000
|  3> % mp2 density relaxed end
|  4> *xyz 0 1
|  5>  C        0.5159664595     1.9188018947     0.4071262352
|  6>  N        0.0069827035     0.5611535398     0.2416775415
|  7>  C        0.9425664109    -0.4200703032    -0.2999451212
|  8>  C        0.4987562515    -0.5203035765     1.1171988841
|  9>  C        1.4302159883    -0.2933129629     2.2860653487
| 10>  C        0.7734904141     0.1893536696     3.5864326835
| 11>  N       -0.5203016117     0.6113254024     3.4808264689
| 12>  O        1.3819088051     0.1989170484     4.6377767964
| 13>  H        1.5963895227     1.9844886273     0.6066026685
| 14>  H        0.3142824014     2.4736078650    -0.5143944515
| 15>  H       -0.0115729391     2.4172602206     1.2263114840
| 16>  H        0.5514382873    -1.0986530006    -1.0534783476
| 17>  H        1.9665998544    -0.0906685569    -0.4747528233
| 18>  H       -0.2812660811    -1.2524144508     1.3266724962
| 19>  H        1.9457516115    -1.2264203132     2.5363499645
| 20>  H        2.2198779618     0.4242516121     2.0442446415
| 21>  H       -1.0222273462     0.6182424958     2.6098853191
| 22>  H       -0.9758523040     0.9444168682     4.3144318513
| 23> *
| 24>
| 25>                          ****END OF INPUT****

CARTESIAN COORDINATES (ANGSTROEM)
---------------------------------
  C      0.515966    1.918802    0.407126
  N      0.006983    0.561154    0.241678
  C      0.942566   -0.420070   -0.299945
  C      0.498756   -0.520304    1.117199
  C      1.430216   -0.293313    2.286065
  C      0.773490    0.189354    3.586433
  N     -0.520302    0.611325    3.480826
  O      1.381909    0.198917    4.637777
  H      1.596390    1.984489    0.606603
  H      0.314282    2.473608   -0.514394
  H     -0.011573    2.417260    1.226311
  H      0.551438   -1.098653   -1.053478
  H      1.966600   -0.090669   -0.474753
  H     -0.281266   -1.252414    1.326672
  H      1.945752   -1.226420    2.536350
  H      2.219878    0.424252    2.044245
  H     -1.022227    0.618242    2.609885
  H     -0.975852    0.944417    4.314432

 Total Charge           Charge          ....    0
 Multiplicity           Mult            ....    1
 Number of Electrons    NEL             ....   62
 Basis Dimension        Dim             ....  308

ORBITAL ENERGIES
----------------

  NO   OCC          E(Eh)            E(eV)
   0   2.0000     -20.513518      -558.2012
   1   2.0000     -15.582152      -424.0119
   2   2.0000     -15.572587      -423.7516
   3   2.0000     -11.351836      -308.8992
   4   2.0000     -11.275924      -306.8335
   5   2.0000     -11.265914      -306.5611
   6   2.0000     -11.257375      -306.3287
   7   2.0000     -11.248796      -306.0953
   8   2.0000      -1.379922       -37.5496
   9   2.0000      -1.284618       -34.9562
  10   2.0000      -1.209626       -32.9156
  11   2.0000      -1.040435       -28.3117
  12   2.0000      -0.991129       -26.9700
  13   2.0000      -0.847106       -23.0509
  14   2.0000      -0.825486       -22.4626
  15   2.0000      -0.783082       -21.3087
  16   2.0000      -0.732473       -19.9316
  17   2.0000      -0.692209       -18.8360
  18   2.0000      -0.666026       -18.1235
  19   2.0000      -0.628639       -17.1061
  20   2.0000      -0.620166       -16.8756
  21   2.0000      -0.588211       -16.0060
  22   2.0000      -0.585138       -15.9224
  23   2.0000      -0.563607       -15.3365
  24   2.0000      -0.538023       -14.6403
  25   2.0000      -0.521095       -14.1797
  26   2.0000      -0.487968       -13.2783
  27   2.0000      -0.457007       -12.4358
  28   2.0000      -0.420417       -11.4401
  29   2.0000      -0.413570       -11.2538
  30   2.0000      -0.380813       -10.3625
  31   0.0000       0.130808         3.5595
  32   0.0000       0.149539         4.0692
  33   0.0000       0.163842         4.4584
  34   0.0000       0.170776         4.6471
  35   0.0000       0.177627         4.8335

MULLIKEN ATOMIC CHARGES
-----------------------
   0 C :   -0.291934
   1 N :   -0.250559
   2 C :   -0.173930
   3 C :   -0.107033
   4 C :   -0.193344
   5 C :    0.242410
   6 N :   -0.478147
   7 O :   -0.347569
   8 H :    0.112071
   9 H :    0.148783
  10 H :    0.130418
  11 H :    0.131773
  12 H :    0.121484
  13 H :    0.142591
  14 H :    0.151836
  15 H :    0.130258
  16 H :    0.276359
  17 H :    0.254532
Sum of atomic charges:    0.0000000

LOEWDIN ATOMIC CHARGES
----------------------
   0 C :   -0.334510
   1 N :    0.072390
   2 C :   -0.243488
   3 C :   -0.271623
   4 C :   -0.222034
   5 C :   -0.477883
   6 N :   -0.008868
   7 O :    0.078837
   8 H :    0.105864
   9 H :    0.121400
  10 H :    0.114947
  11 H :    0.125866
  12 H :    0.126441
  13 H :    0.145877
  14 H :    0.162953
  15 H :    0.156079
  16 H :    0.174217
  17 H :    0.173535

  Mayer bond orders larger than 0.1
B(  0-C ,  1-N ) :   0.8803 B(  0-C ,  8-H ) :   0.9309 B(  0-C ,  9-H ) :   0.9335
B(  0-C , 10-H ) :   0.9343 B(  1-N ,  2-C ) :   0.9030 B(  1-N ,  3-C ) :   0.8736
B(  2-C ,  3-C ) :   0.9206 B(  2-C , 11-H ) :   0.9223 B(  2-C , 12-H ) :   0.9227
B(  3-C ,  4-C ) :   0.8912 B(  3-C , 13-H ) :   0.9266 B(  4-C ,  5-C ) :   0.9142
B(  4-C , 14-H ) :   0.9205 B(  4-C , 15-H ) :   0.9096 B(  5-C ,  6-N ) :   1.1694
B(  5-C ,  7-O ) :   1.9952 B(  6-N , 16-H ) :   0.8574 B(  6-N , 17-H ) :   0.8602

MP2 TOTAL ENERGY:     -380.487628478 Eh
FINAL SINGLE POINT ENERGY      -380.487628478251

DIPOLE MOMENT
-------------
                                X             Y             Z
Electronic contribution:     -0.49832      -1.83435       5.54292
Nuclear contribution   :      0.05917       1.96947      -6.55553
                        -----------------------------------------
Total Dipole Moment    :     -0.43915       0.13512      -1.01261
                        -----------------------------------------
Magnitude (a.u.)       :      1.11197
Magnitude (Debye)      :      2.82641

                             ****ORCA TERMINATED NORMALLY****
TOTAL RUN TIME: 0 days 0 hours 12 minutes 50 seconds 356 msec
