                         Program Version 3.0.3 - RELEASE   -
|  1> ! RI-MP2 RIJK def2-TZVP def2-TZVP/C def2-TZVP/JK TIGHTSCF
|  2> % maxcore 2000
|  3> % mp2 density relaxed end
|  4> *xyz 0 1
|  5>  C        0.0376902831     1.5188204031     0.2072755005
|  6>  C       -0.0798527422     0.0433810506     0.0425760787
|  7>  C       -1.1404782531    -0.6187800185    -0.4053013260
|  8>  O       -1.1763768883    -1.9861972880    -0.5309547518
|  9>  C       -0.0774643890    -2.7236015109    -0.1831419657
| 10>  N       -0.0498040359    -3.9806765833    -0.2748020475
| 11>  C        1.1504510737    -1.9919659302     0.3313825099
| 12>  O        2.1537239677    -2.5455786439     0.6570887747
| 13>  O        1.0695945847    -0.6308001095     0.4134507783
| 14>  H        0.8604210304     1.9114054722    -0.4000525098
| 15>  H       -0.8876288734     2.0132386869    -0.0949870259
| 16>  H        0.2487006930     1.7758804711     1.2509356464
| 17>  H       -2.0641268779    -0.1510421194    -0.7094437903
| 18>  H       -0.9407368027    -4.3312303902    -0.6334613616
| 19> *
| 20>
| 21>                          ****END OF INPUT****

CARTESIAN COORDINATES (ANGSTROEM)
---------------------------------
  C      0.037690    1.518820    0.207276
  C     -0.079853    0.043381    0.042576
  C     -1.140478   -0.618780   -0.405301
  O     -1.176377   -1.986197   -0.530955
  C     -0.077464   -2.723602   -0.183142
  N     -0.049804   -3.980677   -0.274802
  C      1.150451   -1.991966    0.331383
  O      2.153724   -2.545579    0.657089
  O      1.069595   -0.630800    0.413451
  H      0.860421    1.911405   -0.400053
  H     -0.887629    2.013239   -0.094987
  H      0.248701    1.775880    1.250936
  H     -2.064127   -0.151042   -0.709444
  H     -0.940737   -4.331230   -0.633461

 Total Charge           Charge          ....    0
 Multiplicity           Mult            ....    1
 Number of Electrons    NEL             ....   66
 Basis Dimension        Dim             ....  309

ORBITAL ENERGIES
----------------

  NO   OCC          E(Eh)            E(eV)
   0   2.0000     -20.641871      -561.6939
   1   2.0000     -20.641148      -561.6742
   2   2.0000     -20.570620      -559.7550
   3   2.0000     -15.577719      -423.8913
   4   2.0000     -11.415106      -310.6208
   5   2.0000     -11.378589      -309.6271
   6   2.0000     -11.329994      -308.3048
   7   2.0000     -11.317214      -307.9570
   8   2.0000     -11.256750      -306.3117
   9   2.0000      -1.507422       -41.0190
  10   2.0000      -1.466287       -39.8997
  11   2.0000      -1.401484       -38.1363
  12   2.0000      -1.236922       -33.6584
  13   2.0000      -1.099851       -29.9285
  14   2.0000      -0.982491       -26.7349
  15   2.0000      -0.953097       -25.9351
  16   2.0000      -0.889363       -24.2008
  17   2.0000      -0.806579       -21.9481
  18   2.0000      -0.736803       -20.0494
  19   2.0000      -0.701947       -19.1010
  20   2.0000      -0.694581       -18.9005
  21   2.0000      -0.662288       -18.0218
  22   2.0000      -0.644817       -17.5464
  23   2.0000      -0.640782       -17.4366
  24   2.0000      -0.612753       -16.6739
  25   2.0000      -0.599570       -16.3151
  26   2.0000      -0.588526       -16.0146
  27   2.0000      -0.555530       -15.1167
  28   2.0000      -0.530477       -14.4350
  29   2.0000      -0.483446       -13.1552
  30   2.0000      -0.470158       -12.7937
  31   2.0000      -0.451990       -12.2993
  32   2.0000      -0.358173        -9.7464
  33   0.0000       0.078388         2.1331
  34   0.0000       0.128570         3.4986
  35   0.0000       0.147152         4.0042
  36   0.0000       0.154997         4.2177
  37   0.0000       0.164228         4.4689

MULLIKEN ATOMIC CHARGES
-----------------------
   0 C :   -0.401473
   1 C :    0.171640
   2 C :   -0.064677
   3 O :   -0.226822
   4 C :    0.112432
   5 N :   -0.297598
   6 C :    0.278841
   7 O :   -0.216731
   8 O :   -0.194600
   9 H :    0.154439
  10 H :    0.142149
  11 H :    0.154449
  12 H :    0.155495
  13 H :    0.232453
Sum of atomic charges:    0.0000000

LOEWDIN ATOMIC CHARGES
----------------------
   0 C :   -0.259260
   1 C :   -0.296786
   2 C :   -0.243938
   3 O :    0.296747
   4 C :   -0.361877
   5 N :    0.005951
   6 C :   -0.416356
   7 O :    0.202271
   8 O :    0.334069
   9 H :    0.138308
  10 H :    0.138579
  11 H :    0.138304
  12 H :    0.148682
  13 H :    0.175307

  Mayer bond orders larger than 0.1
B(  0-C ,  1-C ) :   0.9073 B(  0-C ,  9-H ) :   0.9225 B(  0-C , 10-H ) :   0.9443
B(  0-C , 11-H ) :   0.9226 B(  1-C ,  2-C ) :   1.6959 B(  1-C ,  8-O ) :   0.9274
B(  2-C ,  3-O ) :   0.9724 B(  2-C , 12-H ) :   0.9333 B(  3-O ,  4-C ) :   1.0167
B(  4-C ,  5-N ) :   2.0247 B(  4-C ,  6-C ) :   0.8924 B(  5-N , 13-H ) :   0.8476
B(  6-C ,  7-O ) :   2.0723 B(  6-C ,  8-O ) :   1.0793

MP2 TOTAL ENERGY:     -473.090806376 Eh
FINAL SINGLE POINT ENERGY      -473.090806375884

DIPOLE MOMENT
-------------
                                X             Y             Z
Electronic contribution:      2.18032      -6.42540       0.27963
Nuclear contribution   :     -3.62303       7.84935      -0.69738
                        -----------------------------------------
Total Dipole Moment    :     -1.44271       1.42395      -0.41775
                        -----------------------------------------
Magnitude (a.u.)       :      2.06967
Magnitude (Debye)      :      5.26069

                             ****ORCA TERMINATED NORMALLY****
TOTAL RUN TIME: 0 days 0 hours 12 minutes 53 seconds 687 msec
