                         Program Version 3.0.3 - RELEASE   -
|  1> ! RI-MP2 RIJK def2-TZVP def2-TZVP/C def2-TZVP/JK TIGHTSCF
|  2> % maxcore 2000
|  3> % mp2 density relaxed end
|  4> *xyz 0 1
|  5>  C       -0.0201777335     1.4284758335    -0.1972430348
|  6>  C       -0.0776854334    -0.0886371345    -0.1465409960
|  7>  O       -1.4191422829    -0.4842566617     0.0675006577
|  8>  C       -1.5942401056    -1.8863024938     0.1313814677
|  9>  C       -3.0817745302    -2.1578714819     0.2954989000
| 10>  N       -3.8361737487    -1.5938780239    -0.8058929494
| 11>  C       -4.7397409569    -2.3134716897    -1.5318369746
| 12>  C       -5.4096873550    -1.5499273356    -2.6648807445
| 13>  O       -5.0054430550    -3.4787542247    -1.2926430342
| 14>  H        1.0076981531     1.7654122770    -0.3605127633
| 15>  H       -0.6426479851     1.8107552665    -1.0115386710
| 16>  H       -0.3816105085     1.8581196189     0.7412738812
| 17>  H        0.2997331297    -0.5243156867    -1.0868324512
| 18>  H        0.5618806218    -0.4733661434     0.6651650296
| 19>  H       -1.2201176407    -2.3623120853    -0.7897484623
| 20>  H       -1.0359344907    -2.3110830075     0.9816548498
| 21>  H       -3.2828472076    -3.2311245748     0.3082016968
| 22>  H       -3.4195820427    -1.7340954552     1.2504993341
| 23>  H       -3.6185752153    -0.6448230309    -1.0609451735
| 24>  H       -5.2988716790    -2.1241651625    -3.5879113879
| 25>  H       -6.4802922148    -1.4753634925    -2.4541214116
| 26>  H       -5.0087446992    -0.5442735011    -2.8159070628
| 27> *
| 28>
| 29>                          ****END OF INPUT****

CARTESIAN COORDINATES (ANGSTROEM)
---------------------------------
  C     -0.020178    1.428476   -0.197243
  C     -0.077685   -0.088637   -0.146541
  O     -1.419142   -0.484257    0.067501
  C     -1.594240   -1.886302    0.131381
  C     -3.081775   -2.157871    0.295499
  N     -3.836174   -1.593878   -0.805893
  C     -4.739741   -2.313472   -1.531837
  C     -5.409687   -1.549927   -2.664881
  O     -5.005443   -3.478754   -1.292643
  H      1.007698    1.765412   -0.360513
  H     -0.642648    1.810755   -1.011539
  H     -0.381611    1.858120    0.741274
  H      0.299733   -0.524316   -1.086832
  H      0.561881   -0.473366    0.665165
  H     -1.220118   -2.362312   -0.789748
  H     -1.035934   -2.311083    0.981655
  H     -3.282847   -3.231125    0.308202
  H     -3.419582   -1.734095    1.250499
  H     -3.618575   -0.644823   -1.060945
  H     -5.298872   -2.124165   -3.587911
  H     -6.480292   -1.475363   -2.454121
  H     -5.008745   -0.544274   -2.815907

 Total Charge           Charge          ....    0
 Multiplicity           Mult            ....    1
 Number of Electrons    NEL             ....   72
 Basis Dimension        Dim             ....  357

ORBITAL ENERGIES
----------------

  NO   OCC          E(Eh)            E(eV)
   0   2.0000     -20.564516      -559.5889
   1   2.0000     -20.504380      -557.9525
   2   2.0000     -15.575595      -423.8335
   3   2.0000     -11.342695      -308.6504
   4   2.0000     -11.283769      -307.0470
   5   2.0000     -11.282562      -307.0141
   6   2.0000     -11.258745      -306.3660
   7   2.0000     -11.232378      -305.6485
   8   2.0000     -11.223004      -305.3935
   9   2.0000      -1.387303       -37.7504
  10   2.0000      -1.370894       -37.3039
  11   2.0000      -1.224402       -33.3177
  12   2.0000      -1.049962       -28.5709
  13   2.0000      -1.009588       -27.4723
  14   2.0000      -0.967059       -26.3150
  15   2.0000      -0.855249       -23.2725
  16   2.0000      -0.839795       -22.8520
  17   2.0000      -0.784582       -21.3496
  18   2.0000      -0.695791       -18.9334
  19   2.0000      -0.678652       -18.4671
  20   2.0000      -0.674124       -18.3439
  21   2.0000      -0.644761       -17.5448
  22   2.0000      -0.628714       -17.1082
  23   2.0000      -0.599571       -16.3151
  24   2.0000      -0.595278       -16.1983
  25   2.0000      -0.570420       -15.5219
  26   2.0000      -0.557166       -15.1613
  27   2.0000      -0.549151       -14.9432
  28   2.0000      -0.541110       -14.7243
  29   2.0000      -0.514386       -13.9972
  30   2.0000      -0.505435       -13.7536
  31   2.0000      -0.496920       -13.5219
  32   2.0000      -0.485236       -13.2039
  33   2.0000      -0.433096       -11.7852
  34   2.0000      -0.416012       -11.3203
  35   2.0000      -0.385378       -10.4867
  36   0.0000       0.126551         3.4436
  37   0.0000       0.144943         3.9441
  38   0.0000       0.152458         4.1486
  39   0.0000       0.172159         4.6847
  40   0.0000       0.183532         4.9942

MULLIKEN ATOMIC CHARGES
-----------------------
   0 C :   -0.362310
   1 C :   -0.049669
   2 O :   -0.317923
   3 C :   -0.080439
   4 C :   -0.082898
   5 N :   -0.344147
   6 C :    0.312801
   7 C :   -0.404547
   8 O :   -0.394814
   9 H :    0.125852
  10 H :    0.125754
  11 H :    0.131715
  12 H :    0.095059
  13 H :    0.095422
  14 H :    0.106817
  15 H :    0.103609
  16 H :    0.162537
  17 H :    0.120758
  18 H :    0.242413
  19 H :    0.149787
  20 H :    0.150178
  21 H :    0.114044
Sum of atomic charges:    0.0000000

LOEWDIN ATOMIC CHARGES
----------------------
   0 C :   -0.317209
   1 C :   -0.352980
   2 O :    0.146682
   3 C :   -0.330224
   4 C :   -0.276804
   5 N :    0.107347
   6 C :   -0.482475
   7 C :   -0.280116
   8 O :    0.064581
   9 H :    0.125775
  10 H :    0.122648
  11 H :    0.124540
  12 H :    0.116958
  13 H :    0.117755
  14 H :    0.122456
  15 H :    0.122819
  16 H :    0.151815
  17 H :    0.135194
  18 H :    0.186144
  19 H :    0.137369
  20 H :    0.138325
  21 H :    0.119402

  Mayer bond orders larger than 0.1
B(  0-C ,  1-C ) :   0.9511 B(  0-C ,  9-H ) :   0.9326 B(  0-C , 10-H ) :   0.9365
B(  0-C , 11-H ) :   0.9356 B(  1-C ,  2-O ) :   0.9183 B(  1-C , 12-H ) :   0.9263
B(  1-C , 13-H ) :   0.9259 B(  2-O ,  3-C ) :   0.9145 B(  3-C ,  4-C ) :   0.9552
B(  3-C , 14-H ) :   0.9235 B(  3-C , 15-H ) :   0.9250 B(  4-C ,  5-N ) :   0.8355
B(  4-C , 16-H ) :   0.9210 B(  4-C , 17-H ) :   0.9298 B(  5-N ,  6-C ) :   1.1608
B(  5-N , 18-H ) :   0.8647 B(  6-C ,  7-C ) :   0.8951 B(  6-C ,  8-O ) :   1.8846
B(  7-C , 19-H ) :   0.9278 B(  7-C , 20-H ) :   0.9232 B(  7-C , 21-H ) :   0.9372

MP2 TOTAL ENERGY:     -440.794243216 Eh
FINAL SINGLE POINT ENERGY      -440.794243215812

DIPOLE MOMENT
-------------
                                X             Y             Z
Electronic contribution:     -6.06127      -5.72929       0.29465
Nuclear contribution   :      7.11599       6.84812      -0.31920
                        -----------------------------------------
Total Dipole Moment    :      1.05472       1.11883      -0.02455
                        -----------------------------------------
Magnitude (a.u.)       :      1.53779
Magnitude (Debye)      :      3.90876

                             ****ORCA TERMINATED NORMALLY****
TOTAL RUN TIME: 0 days 0 hours 15 minutes 55 seconds 682 msec
