                         Program Version 3.0.3 - RELEASE   -
|  1> ! RI-MP2 RIJK def2-TZVP def2-TZVP/C def2-TZVP/JK TIGHTSCF
|  2> % maxcore 2000
|  3> % mp2 density relaxed end
|  4> *xyz 0 1
|  5>  C        0.2096514806     1.2707014911     0.3126274912
|  6>  O        1.3116066274     1.8820100646    -0.3464626999
|  7>  C        2.0322267508     0.8721294185    -1.0027680655
|  8>  C        3.0699335554     0.0476007674    -0.2006083325
|  9>  O        2.4235991847    -0.3919435953     0.9946743554
| 10>  C        2.1793068309    -1.1375450929    -0.1986596509
| 11>  C        1.0973921844    -0.3718392986    -1.0007167409
| 12>  O       -0.0720444550     0.0408085683    -0.3434282679
| 13>  H        0.4483693894     1.0930446641     1.3671852788
| 14>  H       -0.6630678214     1.9263806161     0.2133612038
| 15>  H        2.3896724514     1.2315996562    -1.9699313939
| 16>  H        4.1511169929     0.1191397905    -0.1878969432
| 17>  H        2.4113607300    -2.1959285770    -0.1840896462
| 18>  H        0.8500097387    -0.8172051630    -1.9665544084
| 19> *
| 20>
| 21>                          ****END OF INPUT****

CARTESIAN COORDINATES (ANGSTROEM)
---------------------------------
  C      0.209651    1.270701    0.312627
  O      1.311607    1.882010   -0.346463
  C      2.032227    0.872129   -1.002768
  C      3.069934    0.047601   -0.200608
  O      2.423599   -0.391944    0.994674
  C      2.179307   -1.137545   -0.198660
  C      1.097392   -0.371839   -1.000717
  O     -0.072044    0.040809   -0.343428
  H      0.448369    1.093045    1.367185
  H     -0.663068    1.926381    0.213361
  H      2.389672    1.231600   -1.969931
  H      4.151117    0.119140   -0.187897
  H      2.411361   -2.195929   -0.184090
  H      0.850010   -0.817205   -1.966554

 Total Charge           Charge          ....    0
 Multiplicity           Mult            ....    1
 Number of Electrons    NEL             ....   60
 Basis Dimension        Dim             ....  284

ORBITAL ENERGIES
----------------

  NO   OCC          E(Eh)            E(eV)
   0   2.0000     -20.585208      -560.1520
   1   2.0000     -20.570696      -559.7571
   2   2.0000     -20.570675      -559.7565
   3   2.0000     -11.327355      -308.2330
   4   2.0000     -11.301249      -307.5226
   5   2.0000     -11.300661      -307.5066
   6   2.0000     -11.300485      -307.5018
   7   2.0000     -11.299767      -307.4823
   8   2.0000      -1.458068       -39.6760
   9   2.0000      -1.419607       -38.6295
  10   2.0000      -1.343627       -36.5619
  11   2.0000      -1.088107       -29.6089
  12   2.0000      -0.927517       -25.2390
  13   2.0000      -0.912798       -24.8385
  14   2.0000      -0.839855       -22.8536
  15   2.0000      -0.791790       -21.5457
  16   2.0000      -0.749846       -20.4043
  17   2.0000      -0.705235       -19.1904
  18   2.0000      -0.685079       -18.6419
  19   2.0000      -0.627470       -17.0743
  20   2.0000      -0.623637       -16.9700
  21   2.0000      -0.593954       -16.1623
  22   2.0000      -0.581188       -15.8149
  23   2.0000      -0.548769       -14.9328
  24   2.0000      -0.525534       -14.3005
  25   2.0000      -0.520656       -14.1678
  26   2.0000      -0.477418       -12.9912
  27   2.0000      -0.444989       -12.1088
  28   2.0000      -0.434152       -11.8139
  29   2.0000      -0.394196       -10.7266
  30   0.0000       0.151281         4.1166
  31   0.0000       0.166755         4.5376
  32   0.0000       0.171508         4.6670
  33   0.0000       0.185042         5.0352
  34   0.0000       0.197819         5.3829

MULLIKEN ATOMIC CHARGES
-----------------------
   0 C :    0.128118
   1 O :   -0.333510
   2 C :    0.092337
   3 C :   -0.037378
   4 O :   -0.319048
   5 C :   -0.037373
   6 C :    0.092334
   7 O :   -0.333510
   8 H :    0.106724
   9 H :    0.112380
  10 H :    0.118496
  11 H :    0.145967
  12 H :    0.145967
  13 H :    0.118495
Sum of atomic charges:   -0.0000000

LOEWDIN ATOMIC CHARGES
----------------------
   0 C :   -0.340888
   1 O :    0.179946
   2 C :   -0.269859
   3 C :   -0.222461
   4 O :    0.194769
   5 C :   -0.222462
   6 C :   -0.269859
   7 O :    0.179948
   8 H :    0.110588
   9 H :    0.114507
  10 H :    0.142241
  11 H :    0.130645
  12 H :    0.130645
  13 H :    0.142241

  Mayer bond orders larger than 0.1
B(  0-C ,  1-O ) :   0.9498 B(  0-C ,  7-O ) :   0.9498 B(  0-C ,  8-H ) :   0.9306
B(  0-C ,  9-H ) :   0.9186 B(  1-O ,  2-C ) :   0.9545 B(  2-C ,  3-C ) :   0.8799
B(  2-C ,  6-C ) :   0.9437 B(  2-C , 10-H ) :   0.9151 B(  3-C ,  4-O ) :   0.8929
B(  3-C ,  5-C ) :   0.9094 B(  3-C , 11-H ) :   0.9232 B(  4-O ,  5-C ) :   0.8929
B(  5-C ,  6-C ) :   0.8799 B(  5-C , 12-H ) :   0.9232 B(  6-C ,  7-O ) :   0.9545
B(  6-C , 13-H ) :   0.9151

MP2 TOTAL ENERGY:     -418.956440953 Eh
FINAL SINGLE POINT ENERGY      -418.956440952618

DIPOLE MOMENT
-------------
                                X             Y             Z
Electronic contribution:     -0.03289       0.02595       0.74740
Nuclear contribution   :      0.52496      -0.39683      -1.41223
                        -----------------------------------------
Total Dipole Moment    :      0.49207      -0.37088      -0.66482
                        -----------------------------------------
Magnitude (a.u.)       :      0.90646
Magnitude (Debye)      :      2.30404

                             ****ORCA TERMINATED NORMALLY****
TOTAL RUN TIME: 0 days 0 hours 10 minutes 55 seconds 726 msec
