                         Program Version 3.0.3 - RELEASE   -
|  1> ! RI-MP2 RIJK def2-TZVP def2-TZVP/C def2-TZVP/JK TIGHTSCF
|  2> % maxcore 2000
|  3> % mp2 density relaxed end
|  4> *xyz 0 1
|  5>  C        0.4696771995     1.4917435638     0.0481781143
|  6>  C        0.1997795020     0.0144146064    -0.0357126875
|  7>  C       -0.0986727538    -0.6123357144    -1.1955810924
|  8>  C       -0.2425888699     0.0980003654    -2.5228745195
|  9>  C       -0.2766155239    -2.0921077095    -1.2335502129
| 10>  O       -0.5662479074    -2.6760206315    -2.2619786682
| 11>  C       -0.0357820529    -2.8655614873     0.0558308831
| 12>  C       -0.4305654633    -2.0569658474     1.2904037442
| 13>  C        0.2986063674    -0.7135110634     1.2857092597
| 14>  H        1.3897093785     1.6777284054     0.6164899114
| 15>  H        0.5678766058     1.9664791534    -0.9281718381
| 16>  H       -0.3357130905     1.9990370351     0.5962189308
| 17>  H        0.7200814345     0.4728769076    -2.8899975914
| 18>  H       -0.6288639974    -0.6047727812    -3.2619631303
| 19>  H       -0.9246232655     0.9511050580    -2.4601031758
| 20>  H       -0.5690285908    -3.8164910565    -0.0183237103
| 21>  H        1.0375640181    -3.1035627213     0.0965170276
| 22>  H       -1.5132297153    -1.8800235769     1.2788126561
| 23>  H       -0.2087057627    -2.6119317762     2.2077786249
| 24>  H        1.3641612831    -0.8633849422     1.5230696651
| 25>  H       -0.0849040954    -0.0626526074     2.0815252093
| 26> *
| 27>
| 28>                          ****END OF INPUT****

CARTESIAN COORDINATES (ANGSTROEM)
---------------------------------
  C      0.469677    1.491744    0.048178
  C      0.199780    0.014415   -0.035713
  C     -0.098673   -0.612336   -1.195581
  C     -0.242589    0.098000   -2.522875
  C     -0.276616   -2.092108   -1.233550
  O     -0.566248   -2.676021   -2.261979
  C     -0.035782   -2.865561    0.055831
  C     -0.430565   -2.056966    1.290404
  C      0.298606   -0.713511    1.285709
  H      1.389709    1.677728    0.616490
  H      0.567877    1.966479   -0.928172
  H     -0.335713    1.999037    0.596219
  H      0.720081    0.472877   -2.889998
  H     -0.628864   -0.604773   -3.261963
  H     -0.924623    0.951105   -2.460103
  H     -0.569029   -3.816491   -0.018324
  H      1.037564   -3.103563    0.096517
  H     -1.513230   -1.880024    1.278813
  H     -0.208706   -2.611932    2.207779
  H      1.364161   -0.863385    1.523070
  H     -0.084904   -0.062653    2.081525

 Total Charge           Charge          ....    0
 Multiplicity           Mult            ....    1
 Number of Electrons    NEL             ....   68
 Basis Dimension        Dim             ....  351

ORBITAL ENERGIES
----------------

  NO   OCC          E(Eh)            E(eV)
   0   2.0000     -20.528264      -558.6025
   1   2.0000     -11.318096      -307.9811
   2   2.0000     -11.261425      -306.4390
   3   2.0000     -11.241166      -305.8877
   4   2.0000     -11.235574      -305.7355
   5   2.0000     -11.234322      -305.7014
   6   2.0000     -11.232617      -305.6550
   7   2.0000     -11.230789      -305.6053
   8   2.0000     -11.211681      -305.0853
   9   2.0000      -1.371531       -37.3213
  10   2.0000      -1.141146       -31.0522
  11   2.0000      -1.058612       -28.8063
  12   2.0000      -1.011324       -27.5195
  13   2.0000      -0.952518       -25.9193
  14   2.0000      -0.914604       -24.8876
  15   2.0000      -0.828409       -22.5422
  16   2.0000      -0.789859       -21.4932
  17   2.0000      -0.682573       -18.5738
  18   2.0000      -0.653759       -17.7897
  19   2.0000      -0.648214       -17.6388
  20   2.0000      -0.625675       -17.0255
  21   2.0000      -0.594301       -16.1717
  22   2.0000      -0.582574       -15.8526
  23   2.0000      -0.565760       -15.3951
  24   2.0000      -0.556634       -15.1468
  25   2.0000      -0.552135       -15.0244
  26   2.0000      -0.547272       -14.8920
  27   2.0000      -0.526507       -14.3270
  28   2.0000      -0.515868       -14.0375
  29   2.0000      -0.490039       -13.3346
  30   2.0000      -0.476523       -12.9668
  31   2.0000      -0.471916       -12.8415
  32   2.0000      -0.396289       -10.7836
  33   2.0000      -0.347614        -9.4590
  34   0.0000       0.101386         2.7589
  35   0.0000       0.121317         3.3012
  36   0.0000       0.143424         3.9028
  37   0.0000       0.166010         4.5174
  38   0.0000       0.168059         4.5731

MULLIKEN ATOMIC CHARGES
-----------------------
   0 C :   -0.437447
   1 C :    0.076896
   2 C :   -0.066991
   3 C :   -0.468981
   4 C :    0.177652
   5 O :   -0.309710
   6 C :   -0.201926
   7 C :   -0.226202
   8 C :   -0.227028
   9 H :    0.144368
  10 H :    0.148965
  11 H :    0.149375
  12 H :    0.141085
  13 H :    0.179850
  14 H :    0.141538
  15 H :    0.142173
  16 H :    0.124167
  17 H :    0.122019
  18 H :    0.128524
  19 H :    0.127549
  20 H :    0.134126
Sum of atomic charges:    0.0000000

LOEWDIN ATOMIC CHARGES
----------------------
   0 C :   -0.264428
   1 C :   -0.135904
   2 C :   -0.145062
   3 C :   -0.271536
   4 C :   -0.296358
   5 O :    0.134693
   6 C :   -0.224129
   7 C :   -0.254671
   8 C :   -0.225457
   9 H :    0.135725
  10 H :    0.130989
  11 H :    0.136604
  12 H :    0.130600
  13 H :    0.139303
  14 H :    0.128264
  15 H :    0.147902
  16 H :    0.154416
  17 H :    0.143264
  18 H :    0.137416
  19 H :    0.150889
  20 H :    0.147480

  Mayer bond orders larger than 0.1
B(  0-C ,  1-C ) :   0.8835 B(  0-C ,  9-H ) :   0.9305 B(  0-C , 10-H ) :   0.9477
B(  0-C , 11-H ) :   0.9304 B(  1-C ,  2-C ) :   1.5731 B(  1-C ,  8-C ) :   0.9418
B(  2-C ,  3-C ) :   0.8831 B(  2-C ,  4-C ) :   0.9817 B(  3-C , 12-H ) :   0.9338
B(  3-C , 13-H ) :   0.9281 B(  3-C , 14-H ) :   0.9430 B(  4-C ,  5-O ) :   1.9468
B(  4-C ,  6-C ) :   0.9446 B(  6-C ,  7-C ) :   0.8919 B(  6-C , 15-H ) :   0.9274
B(  6-C , 16-H ) :   0.9078 B(  7-C ,  8-C ) :   0.9384 B(  7-C , 17-H ) :   0.9322
B(  7-C , 18-H ) :   0.9346 B(  8-C , 19-H ) :   0.9081 B(  8-C , 20-H ) :   0.9308

MP2 TOTAL ENERGY:     -386.459974696 Eh
FINAL SINGLE POINT ENERGY      -386.459974695544

DIPOLE MOMENT
-------------
                                X             Y             Z
Electronic contribution:     -1.28593      -5.41165      -3.65859
Nuclear contribution   :      1.63013       6.21692       4.78714
                        -----------------------------------------
Total Dipole Moment    :      0.34420       0.80527       1.12855
                        -----------------------------------------
Magnitude (a.u.)       :      1.42848
Magnitude (Debye)      :      3.63091

                             ****ORCA TERMINATED NORMALLY****
TOTAL RUN TIME: 0 days 0 hours 22 minutes 11 seconds 878 msec
