                         Program Version 3.0.3 - RELEASE   -
|  1> ! RI-MP2 RIJK def2-TZVP def2-TZVP/C def2-TZVP/JK TIGHTSCF
|  2> % maxcore 2000
|  3> % mp2 density relaxed end
|  4> *xyz 0 1
|  5>  C       -0.0434728711     1.5380111281    -0.0629409913
|  6>  C       -0.0105818289     0.0093270200    -0.0001137272
|  7>  C        0.6606501846    -0.6110564521    -1.2267626286
|  8>  C        0.7340930149    -2.1180065888    -1.1918704173
|  9>  O        0.3461443552    -2.7925716056    -0.2653228987
| 10>  C        1.3647011599    -2.8557096014    -2.4068527102
| 11>  O        1.4680479656    -4.2242410164    -2.1269880290
| 12>  C        0.5726609106    -2.5853764595    -3.6130010867
| 13>  C       -0.0839548157    -2.3635925837    -4.5949478026
| 14>  H        0.9673790588     1.9577691127    -0.1156193014
| 15>  H       -0.5930919212     1.8899634685    -0.9430365160
| 16>  H       -0.5308266867     1.9567186872     0.8224308128
| 17>  H        0.5155035782    -0.3215300376     0.9015440752
| 18>  H       -1.0282526039    -0.3862861482     0.0868909733
| 19>  H        0.1494499341    -0.3228821881    -2.1542424829
| 20>  H        1.6888813236    -0.2370635293    -1.3441693175
| 21>  H        2.3732170448    -2.4342169304    -2.5516927325
| 22>  H        0.9740316388    -4.3439417210    -1.2975719858
| 23>  H       -0.6571566216    -2.1790129944    -5.4700780137
| 24> *
| 25>
| 26>                          ****END OF INPUT****

CARTESIAN COORDINATES (ANGSTROEM)
---------------------------------
  C     -0.043473    1.538011   -0.062941
  C     -0.010582    0.009327   -0.000114
  C      0.660650   -0.611056   -1.226763
  C      0.734093   -2.118007   -1.191870
  O      0.346144   -2.792572   -0.265323
  C      1.364701   -2.855710   -2.406853
  O      1.468048   -4.224241   -2.126988
  C      0.572661   -2.585376   -3.613001
  C     -0.083955   -2.363593   -4.594948
  H      0.967379    1.957769   -0.115619
  H     -0.593092    1.889963   -0.943037
  H     -0.530827    1.956719    0.822431
  H      0.515504   -0.321530    0.901544
  H     -1.028253   -0.386286    0.086891
  H      0.149450   -0.322882   -2.154242
  H      1.688881   -0.237064   -1.344169
  H      2.373217   -2.434217   -2.551693
  H      0.974032   -4.343942   -1.297572
  H     -0.657157   -2.179013   -5.470078

 Total Charge           Charge          ....    0
 Multiplicity           Mult            ....    1
 Number of Electrons    NEL             ....   68
 Basis Dimension        Dim             ....  339

ORBITAL ENERGIES
----------------

  NO   OCC          E(Eh)            E(eV)
   0   2.0000     -20.573561      -559.8351
   1   2.0000     -20.564673      -559.5932
   2   2.0000     -11.354129      -308.9616
   3   2.0000     -11.329374      -308.2879
   4   2.0000     -11.251990      -306.1822
   5   2.0000     -11.248611      -306.0903
   6   2.0000     -11.241669      -305.9014
   7   2.0000     -11.234475      -305.7056
   8   2.0000     -11.224808      -305.4426
   9   2.0000      -1.427548       -38.8456
  10   2.0000      -1.371252       -37.3137
  11   2.0000      -1.095795       -29.8181
  12   2.0000      -1.065214       -28.9859
  13   2.0000      -0.998684       -27.1756
  14   2.0000      -0.949564       -25.8389
  15   2.0000      -0.839478       -22.8434
  16   2.0000      -0.778976       -21.1970
  17   2.0000      -0.742512       -20.2048
  18   2.0000      -0.722367       -19.6566
  19   2.0000      -0.688191       -18.7266
  20   2.0000      -0.672989       -18.3130
  21   2.0000      -0.650465       -17.7001
  22   2.0000      -0.624801       -17.0017
  23   2.0000      -0.582992       -15.8640
  24   2.0000      -0.574952       -15.6452
  25   2.0000      -0.555651       -15.1200
  26   2.0000      -0.520954       -14.1759
  27   2.0000      -0.516096       -14.0437
  28   2.0000      -0.497069       -13.5259
  29   2.0000      -0.490598       -13.3498
  30   2.0000      -0.480480       -13.0745
  31   2.0000      -0.452361       -12.3094
  32   2.0000      -0.410931       -11.1820
  33   2.0000      -0.395260       -10.7556
  34   0.0000       0.116091         3.1590
  35   0.0000       0.121850         3.3157
  36   0.0000       0.146706         3.9921
  37   0.0000       0.157855         4.2954
  38   0.0000       0.164241         4.4692

MULLIKEN ATOMIC CHARGES
-----------------------
   0 C :   -0.383915
   1 C :   -0.177392
   2 C :   -0.299585
   3 C :    0.221704
   4 O :   -0.312590
   5 C :   -0.046751
   6 O :   -0.458579
   7 C :    0.013280
   8 C :   -0.155114
   9 H :    0.123377
  10 H :    0.124564
  11 H :    0.140307
  12 H :    0.121466
  13 H :    0.121553
  14 H :    0.163301
  15 H :    0.138612
  16 H :    0.133801
  17 H :    0.337363
  18 H :    0.194599
Sum of atomic charges:    0.0000000

LOEWDIN ATOMIC CHARGES
----------------------
   0 C :   -0.318155
   1 C :   -0.284723
   2 C :   -0.238238
   3 C :   -0.283260
   4 O :    0.159546
   5 C :   -0.326615
   6 O :    0.008576
   7 C :   -0.086422
   8 C :   -0.081861
   9 H :    0.120740
  10 H :    0.121182
  11 H :    0.123500
  12 H :    0.141383
  13 H :    0.141871
  14 H :    0.163367
  15 H :    0.158877
  16 H :    0.165989
  17 H :    0.184876
  18 H :    0.129366

  Mayer bond orders larger than 0.1
B(  0-C ,  1-C ) :   0.9135 B(  0-C ,  9-H ) :   0.9381 B(  0-C , 10-H ) :   0.9373
B(  0-C , 11-H ) :   0.9438 B(  1-C ,  2-C ) :   0.9320 B(  1-C , 12-H ) :   0.9334
B(  1-C , 13-H ) :   0.9337 B(  2-C ,  3-C ) :   0.9415 B(  2-C , 14-H ) :   0.9013
B(  2-C , 15-H ) :   0.8994 B(  3-C ,  4-O ) :   1.8983 B(  3-C ,  5-C ) :   0.9371
B(  5-C ,  6-O ) :   1.2045 B(  5-C ,  7-C ) :   0.8613 B(  5-C , 16-H ) :   0.9861
B(  6-O ,  7-C ) :  -0.1151 B(  6-O , 17-H ) :   0.7962 B(  7-C ,  8-C ) :   2.7111
B(  8-C , 18-H ) :   0.9073

MP2 TOTAL ENERGY:     -422.294374812 Eh
FINAL SINGLE POINT ENERGY      -422.294374812252

DIPOLE MOMENT
-------------
                                X             Y             Z
Electronic contribution:      1.58304     -11.28779      -4.28716
Nuclear contribution   :     -1.67018      12.50851       4.14260
                        -----------------------------------------
Total Dipole Moment    :     -0.08713       1.22072      -0.14456
                        -----------------------------------------
Magnitude (a.u.)       :      1.23233
Magnitude (Debye)      :      3.13233

                             ****ORCA TERMINATED NORMALLY****
TOTAL RUN TIME: 0 days 0 hours 16 minutes 0 seconds 324 msec
