                         Program Version 3.0.3 - RELEASE   -
|  1> ! RI-MP2 RIJK def2-TZVP def2-TZVP/C def2-TZVP/JK TIGHTSCF
|  2> % maxcore 2000
|  3> % mp2 density relaxed end
|  4> *xyz 0 1
|  5>  C       -0.2827349542     1.4925529259     0.7570546346
|  6>  N        0.0086295586     0.0275251899     0.6248088555
|  7>  H       -0.8373231834    -0.5119399731     0.8043451874
|  8>  C        1.2575802543    -0.6626296832     1.2548107398
|  9>  C        0.9403596059    -1.8582748980     0.3212672423
| 10>  C        0.8242505631    -0.5854043803    -0.5550981322
| 11>  C        2.1116771970    -0.0365540991     0.1185674117
| 12>  C        2.4049146208     1.5038315456     0.1141434203
| 13>  O        2.7389403445     1.9451472864     1.2273693876
| 14>  O        2.2080928998     2.0398610199    -0.9901884075
| 15>  H       -0.0421295679     1.9856270148    -0.1843368067
| 16>  H       -1.3370660111     1.5981869003     1.0135695410
| 17>  H        0.3663768163     1.9125883990     1.5248088493
| 18>  H        1.3858843125    -0.6190139486     2.3338895482
| 19>  H        1.7818870723    -2.5077794635     0.0920761379
| 20>  H        0.0258756178    -2.4310306826     0.5157735634
| 21>  H        0.4516521275    -0.4525260252    -1.5681577022
| 22>  H        3.0010414062    -0.6223841983    -0.1193662905
| 23> *
| 24>
| 25>                          ****END OF INPUT****

CARTESIAN COORDINATES (ANGSTROEM)
---------------------------------
  C     -0.282735    1.492553    0.757055
  N      0.008630    0.027525    0.624809
  H     -0.837323   -0.511940    0.804345
  C      1.257580   -0.662630    1.254811
  C      0.940360   -1.858275    0.321267
  C      0.824251   -0.585404   -0.555098
  C      2.111677   -0.036554    0.118567
  C      2.404915    1.503832    0.114143
  O      2.738940    1.945147    1.227369
  O      2.208093    2.039861   -0.990188
  H     -0.042130    1.985627   -0.184337
  H     -1.337066    1.598187    1.013570
  H      0.366377    1.912588    1.524809
  H      1.385884   -0.619014    2.333890
  H      1.781887   -2.507779    0.092076
  H      0.025876   -2.431031    0.515774
  H      0.451652   -0.452526   -1.568158
  H      3.001041   -0.622384   -0.119366

 Total Charge           Charge          ....    0
 Multiplicity           Mult            ....    1
 Number of Electrons    NEL             ....   68
 Basis Dimension        Dim             ....  333

ORBITAL ENERGIES
----------------

  NO   OCC          E(Eh)            E(eV)
   0   2.0000     -20.449475      -556.4585
   1   2.0000     -20.449444      -556.4577
   2   2.0000     -15.704724      -427.3473
   3   2.0000     -11.341541      -308.6190
   4   2.0000     -11.341492      -308.6177
   5   2.0000     -11.299423      -307.4729
   6   2.0000     -11.295236      -307.3590
   7   2.0000     -11.289780      -307.2105
   8   2.0000     -11.262588      -306.4706
   9   2.0000      -1.382486       -37.6194
  10   2.0000      -1.333272       -36.2802
  11   2.0000      -1.239329       -33.7239
  12   2.0000      -1.154756       -31.4225
  13   2.0000      -0.987318       -26.8663
  14   2.0000      -0.949315       -25.8322
  15   2.0000      -0.937143       -25.5010
  16   2.0000      -0.832210       -22.6456
  17   2.0000      -0.751129       -20.4392
  18   2.0000      -0.737575       -20.0704
  19   2.0000      -0.710319       -19.3288
  20   2.0000      -0.652929       -17.7671
  21   2.0000      -0.630555       -17.1583
  22   2.0000      -0.606095       -16.4927
  23   2.0000      -0.589789       -16.0490
  24   2.0000      -0.569160       -15.4876
  25   2.0000      -0.560680       -15.2569
  26   2.0000      -0.551450       -15.0057
  27   2.0000      -0.541623       -14.7383
  28   2.0000      -0.527561       -14.3557
  29   2.0000      -0.502211       -13.6659
  30   2.0000      -0.487274       -13.2594
  31   2.0000      -0.374324       -10.1859
  32   2.0000      -0.355088        -9.6624
  33   2.0000      -0.355078        -9.6622
  34   0.0000       0.085034         2.3139
  35   0.0000       0.131063         3.5664
  36   0.0000       0.143176         3.8960
  37   0.0000       0.154574         4.2062
  38   0.0000       0.158632         4.3166

MULLIKEN ATOMIC CHARGES
-----------------------
   0 C :   -0.369730
   1 N :   -0.039352
   2 H :    0.244690
   3 C :   -0.112208
   4 C :   -0.187839
   5 C :   -0.112212
   6 C :   -0.098097
   7 C :    0.220928
   8 O :   -0.453896
   9 O :   -0.453909
  10 H :    0.210852
  11 H :    0.149375
  12 H :    0.210820
  13 H :    0.178821
  14 H :    0.158891
  15 H :    0.133865
  16 H :    0.178819
  17 H :    0.140182
Sum of atomic charges:   -0.0000000

LOEWDIN ATOMIC CHARGES
----------------------
   0 C :   -0.253228
   1 N :    0.270351
   2 H :    0.206290
   3 C :   -0.121113
   4 C :   -0.198343
   5 C :   -0.121110
   6 C :   -0.149962
   7 C :   -0.705746
   8 O :   -0.031481
   9 O :   -0.031501
  10 H :    0.148613
  11 H :    0.119680
  12 H :    0.148599
  13 H :    0.140998
  14 H :    0.147852
  15 H :    0.128888
  16 H :    0.140997
  17 H :    0.160216

  Mayer bond orders larger than 0.1
B(  0-C ,  1-N ) :   0.8421 B(  0-C , 10-H ) :   0.9117 B(  0-C , 11-H ) :   0.9073
B(  0-C , 12-H ) :   0.9118 B(  1-N ,  2-H ) :   0.8566 B(  1-N ,  3-C ) :   0.7824
B(  1-N ,  5-C ) :   0.7824 B(  3-C ,  4-C ) :   0.8935 B(  3-C ,  6-C ) :   0.8700
B(  3-C , 13-H ) :   0.8996 B(  4-C ,  5-C ) :   0.8935 B(  4-C , 14-H ) :   0.9322
B(  4-C , 15-H ) :   0.9244 B(  5-C ,  6-C ) :   0.8700 B(  5-C , 16-H ) :   0.8996
B(  6-C ,  7-C ) :   0.8812 B(  6-C , 17-H ) :   0.9297 B(  7-C ,  8-O ) :   1.7760
B(  7-C ,  9-O ) :   1.7760

MP2 TOTAL ENERGY:     -438.289343953 Eh
FINAL SINGLE POINT ENERGY      -438.289343952732

DIPOLE MOMENT
-------------
                                X             Y             Z
Electronic contribution:      3.87321       2.37881      -0.82566
Nuclear contribution   :     -6.84747      -5.53652       1.40293
                        -----------------------------------------
Total Dipole Moment    :     -2.97426      -3.15771       0.57727
                        -----------------------------------------
Magnitude (a.u.)       :      4.37614
Magnitude (Debye)      :     11.12326

                             ****ORCA TERMINATED NORMALLY****
TOTAL RUN TIME: 0 days 0 hours 18 minutes 26 seconds 17 msec
