                         Program Version 3.0.3 - RELEASE   -
|  1> ! RI-MP2 RIJK def2-TZVP def2-TZVP/C def2-TZVP/JK TIGHTSCF
|  2> % maxcore 2000
|  3> % mp2 density relaxed end
|  4> *xyz 0 1
|  5>  N       -0.0792158311     1.2979229200    -0.6341847027
|  6>  C       -0.0179248414     0.1277367299    -0.1517014212
|  7>  C       -1.2819414561    -0.6935297230    -0.0111390298
|  8>  C       -1.9026639289    -0.6925426116     1.4027007122
|  9>  C       -1.1642489983    -1.4504562139     2.5191365151
| 10>  C        0.2153077045    -0.8970698278     2.9147904569
| 11>  O        1.3386911809    -1.5145222941     2.2868246018
| 12>  C        1.3031735028    -1.6359832287     0.9056182081
| 13>  O        1.1924392917    -0.3889431545     0.2362999215
| 14>  H        0.8520215817     1.7205909693    -0.6400626215
| 15>  H       -1.9928815817    -0.2226044158    -0.6920529473
| 16>  H       -1.1352333634    -1.7206465889    -0.3626428041
| 17>  H       -2.0325594289     0.3522430836     1.7108890135
| 18>  H       -2.9112108504    -1.1124035819     1.3144980674
| 19>  H       -1.7984044348    -1.4059618189     3.4122499928
| 20>  H       -1.0690806100    -2.5170296155     2.2787441621
| 21>  H        0.2467405487     0.1889415686     2.7466020072
| 22>  H        0.3928460203    -1.0659691413     3.9798664807
| 23>  H        2.2738923312    -2.0447726776     0.6172149763
| 24>  H        0.5080719532    -2.3129910480     0.5725271111
| 25> *
| 26>
| 27>                          ****END OF INPUT****

CARTESIAN COORDINATES (ANGSTROEM)
---------------------------------
  N     -0.079216    1.297923   -0.634185
  C     -0.017925    0.127737   -0.151701
  C     -1.281941   -0.693530   -0.011139
  C     -1.902664   -0.692543    1.402701
  C     -1.164249   -1.450456    2.519137
  C      0.215308   -0.897070    2.914790
  O      1.338691   -1.514522    2.286825
  C      1.303174   -1.635983    0.905618
  O      1.192439   -0.388943    0.236300
  H      0.852022    1.720591   -0.640063
  H     -1.992882   -0.222604   -0.692053
  H     -1.135233   -1.720647   -0.362643
  H     -2.032559    0.352243    1.710889
  H     -2.911211   -1.112404    1.314498
  H     -1.798404   -1.405962    3.412250
  H     -1.069081   -2.517030    2.278744
  H      0.246741    0.188942    2.746602
  H      0.392846   -1.065969    3.979866
  H      2.273892   -2.044773    0.617215
  H      0.508072   -2.312991    0.572527

 Total Charge           Charge          ....    0
 Multiplicity           Mult            ....    1
 Number of Electrons    NEL             ....   70
 Basis Dimension        Dim             ....  345

ORBITAL ENERGIES
----------------

  NO   OCC          E(Eh)            E(eV)
   0   2.0000     -20.594325      -560.4001
   1   2.0000     -20.570278      -559.7457
   2   2.0000     -15.528909      -422.5631
   3   2.0000     -11.344992      -308.7129
   4   2.0000     -11.338226      -308.5288
   5   2.0000     -11.285401      -307.0914
   6   2.0000     -11.244657      -305.9827
   7   2.0000     -11.241790      -305.9047
   8   2.0000     -11.238526      -305.8159
   9   2.0000      -1.443885       -39.2901
  10   2.0000      -1.375642       -37.4331
  11   2.0000      -1.195073       -32.5196
  12   2.0000      -1.089616       -29.6500
  13   2.0000      -1.014455       -27.6047
  14   2.0000      -0.958459       -26.0810
  15   2.0000      -0.880695       -23.9649
  16   2.0000      -0.827054       -22.5053
  17   2.0000      -0.752998       -20.4901
  18   2.0000      -0.728108       -19.8128
  19   2.0000      -0.706618       -19.2280
  20   2.0000      -0.691643       -18.8206
  21   2.0000      -0.642199       -17.4751
  22   2.0000      -0.623921       -16.9777
  23   2.0000      -0.616781       -16.7835
  24   2.0000      -0.600348       -16.3363
  25   2.0000      -0.563174       -15.3247
  26   2.0000      -0.551513       -15.0074
  27   2.0000      -0.521114       -14.1802
  28   2.0000      -0.511891       -13.9293
  29   2.0000      -0.505573       -13.7573
  30   2.0000      -0.492738       -13.4081
  31   2.0000      -0.473568       -12.8864
  32   2.0000      -0.436525       -11.8785
  33   2.0000      -0.433655       -11.8003
  34   2.0000      -0.395474       -10.7614
  35   0.0000       0.128298         3.4912
  36   0.0000       0.151809         4.1309
  37   0.0000       0.165795         4.5115
  38   0.0000       0.166554         4.5322
  39   0.0000       0.188792         5.1373

MULLIKEN ATOMIC CHARGES
-----------------------
   0 N :   -0.375898
   1 C :    0.130473
   2 C :   -0.196428
   3 C :   -0.239973
   4 C :   -0.252730
   5 C :   -0.078893
   6 O :   -0.292944
   7 C :    0.051251
   8 O :   -0.258472
   9 H :    0.218962
  10 H :    0.150349
  11 H :    0.133443
  12 H :    0.135732
  13 H :    0.127901
  14 H :    0.132131
  15 H :    0.124657
  16 H :    0.118827
  17 H :    0.132208
  18 H :    0.140410
  19 H :    0.098994
Sum of atomic charges:    0.0000000

LOEWDIN ATOMIC CHARGES
----------------------
   0 N :   -0.057617
   1 C :   -0.413316
   2 C :   -0.235837
   3 C :   -0.262373
   4 C :   -0.277371
   5 C :   -0.307823
   6 O :    0.164019
   7 C :   -0.387903
   8 O :    0.234837
   9 H :    0.165720
  10 H :    0.161247
  11 H :    0.141192
  12 H :    0.146148
  13 H :    0.142480
  14 H :    0.147313
  15 H :    0.141620
  16 H :    0.128411
  17 H :    0.132613
  18 H :    0.127216
  19 H :    0.109423

  Mayer bond orders larger than 0.1
B(  0-N ,  1-C ) :   2.0372 B(  0-N ,  9-H ) :   0.8587 B(  1-C ,  2-C ) :   0.8890
B(  1-C ,  8-O ) :   1.0649 B(  2-C ,  3-C ) :   0.9072 B(  2-C , 10-H ) :   0.9139
B(  2-C , 11-H ) :   0.9322 B(  3-C ,  4-C ) :   0.9284 B(  3-C , 12-H ) :   0.9292
B(  3-C , 13-H ) :   0.9321 B(  4-C ,  5-C ) :   0.8901 B(  4-C , 14-H ) :   0.9209
B(  4-C , 15-H ) :   0.9286 B(  5-C ,  6-O ) :   0.9123 B(  5-C , 16-H ) :   0.9450
B(  5-C , 17-H ) :   0.9280 B(  6-O ,  7-C ) :   1.0203 B(  7-C ,  8-O ) :   0.9023
B(  7-C , 18-H ) :   0.9319 B(  7-C , 19-H ) :   0.9379

MP2 TOTAL ENERGY:     -439.571923407 Eh
FINAL SINGLE POINT ENERGY      -439.571923406815

DIPOLE MOMENT
-------------
                                X             Y             Z
Electronic contribution:      5.67636       1.82147      -2.57576
Nuclear contribution   :     -6.09291      -2.68352       3.01814
                        -----------------------------------------
Total Dipole Moment    :     -0.41655      -0.86205       0.44239
                        -----------------------------------------
Magnitude (a.u.)       :      1.05468
Magnitude (Debye)      :      2.68078

                             ****ORCA TERMINATED NORMALLY****
TOTAL RUN TIME: 0 days 0 hours 18 minutes 10 seconds 131 msec
