                         Program Version 3.0.3 - RELEASE   -
|  1> ! RI-MP2 RIJK def2-TZVP def2-TZVP/C def2-TZVP/JK TIGHTSCF
|  2> % maxcore 2000
|  3> % mp2 density relaxed end
|  4> *xyz 0 1
|  5>  C       -0.0527503691     1.4903925507     0.0105916771
|  6>  C        1.3986943358     1.9026077341    -0.0009597470
|  7>  C        2.2059639671     0.8261011504    -0.0145589394
|  8>  C        1.3988404542    -0.3927530131    -0.0136779998
|  9>  C        1.7087784506    -1.7465708361    -0.0241448143
| 10>  C        0.6409681755    -2.6451789546    -0.0189912705
| 11>  C       -0.6657784546    -2.1625269803    -0.0038911728
| 12>  N       -0.9845371119    -0.8568877570     0.0063876690
| 13>  C        0.0378503280    -0.0171498883     0.0013344585
| 14>  H       -0.5887227450     1.8598943160     0.8945285562
| 15>  H       -0.6053979134     1.8696273501    -0.8588361511
| 16>  H        1.7203637528     2.9361668464     0.0017063101
| 17>  H        3.2891340805     0.8402468611    -0.0247607151
| 18>  H        2.7359285231    -2.0977331504    -0.0358502090
| 19>  H        0.8173740292    -3.7151666075    -0.0266123996
| 20>  H       -1.5024116130    -2.8563962717     0.0002026077
| 21> *
| 22>
| 23>                          ****END OF INPUT****

CARTESIAN COORDINATES (ANGSTROEM)
---------------------------------
  C     -0.052750    1.490393    0.010592
  C      1.398694    1.902608   -0.000960
  C      2.205964    0.826101   -0.014559
  C      1.398840   -0.392753   -0.013678
  C      1.708778   -1.746571   -0.024145
  C      0.640968   -2.645179   -0.018991
  C     -0.665778   -2.162527   -0.003891
  N     -0.984537   -0.856888    0.006388
  C      0.037850   -0.017150    0.001334
  H     -0.588723    1.859894    0.894529
  H     -0.605398    1.869627   -0.858836
  H      1.720364    2.936167    0.001706
  H      3.289134    0.840247   -0.024761
  H      2.735929   -2.097733   -0.035850
  H      0.817374   -3.715167   -0.026612
  H     -1.502412   -2.856396    0.000203

 Total Charge           Charge          ....    0
 Multiplicity           Mult            ....    1
 Number of Electrons    NEL             ....   62
 Basis Dimension        Dim             ....  321

ORBITAL ENERGIES
----------------

  NO   OCC          E(Eh)            E(eV)
   0   2.0000     -15.561259      -423.4434
   1   2.0000     -11.271663      -306.7175
   2   2.0000     -11.266588      -306.5794
   3   2.0000     -11.253017      -306.2102
   4   2.0000     -11.241011      -305.8835
   5   2.0000     -11.240095      -305.8585
   6   2.0000     -11.238902      -305.8261
   7   2.0000     -11.237230      -305.7806
   8   2.0000     -11.235241      -305.7264
   9   2.0000      -1.260836       -34.3091
  10   2.0000      -1.145393       -31.1677
  11   2.0000      -1.081611       -29.4321
  12   2.0000      -0.988539       -26.8995
  13   2.0000      -0.960497       -26.1364
  14   2.0000      -0.855871       -23.2894
  15   2.0000      -0.817026       -22.2324
  16   2.0000      -0.766915       -20.8688
  17   2.0000      -0.702211       -19.1081
  18   2.0000      -0.666805       -18.1447
  19   2.0000      -0.626871       -17.0580
  20   2.0000      -0.608927       -16.5697
  21   2.0000      -0.606247       -16.4968
  22   2.0000      -0.573560       -15.6073
  23   2.0000      -0.540380       -14.7045
  24   2.0000      -0.522630       -14.2215
  25   2.0000      -0.519907       -14.1474
  26   2.0000      -0.513727       -13.9792
  27   2.0000      -0.426848       -11.6151
  28   2.0000      -0.409514       -11.1435
  29   2.0000      -0.363605        -9.8942
  30   2.0000      -0.302458        -8.2303
  31   0.0000       0.095475         2.5980
  32   0.0000       0.113028         3.0756
  33   0.0000       0.152216         4.1420
  34   0.0000       0.159266         4.3339
  35   0.0000       0.173200         4.7130

MULLIKEN ATOMIC CHARGES
-----------------------
   0 C :   -0.121734
   1 C :   -0.168696
   2 C :   -0.208622
   3 C :    0.118560
   4 C :   -0.216681
   5 C :   -0.068239
   6 C :   -0.065163
   7 N :   -0.239247
   8 C :    0.036054
   9 H :    0.140837
  10 H :    0.140830
  11 H :    0.134451
  12 H :    0.131928
  13 H :    0.129933
  14 H :    0.132381
  15 H :    0.123409
Sum of atomic charges:   -0.0000000

LOEWDIN ATOMIC CHARGES
----------------------
   0 C :   -0.191622
   1 C :   -0.127959
   2 C :   -0.116605
   3 C :   -0.110099
   4 C :   -0.104352
   5 C :   -0.148816
   6 C :   -0.213760
   7 N :    0.154924
   8 C :   -0.176067
   9 H :    0.160231
  10 H :    0.160231
  11 H :    0.137644
  12 H :    0.142133
  13 H :    0.148225
  14 H :    0.148574
  15 H :    0.137318

  Mayer bond orders larger than 0.1
B(  0-C ,  1-C ) :   0.9788 B(  0-C ,  8-C ) :   0.9943 B(  0-C ,  9-H ) :   0.8854
B(  0-C , 10-H ) :   0.8854 B(  1-C ,  2-C ) :   1.7086 B(  1-C , 11-H ) :   0.9316
B(  2-C ,  3-C ) :   0.9850 B(  2-C , 12-H ) :   0.9232 B(  3-C ,  4-C ) :   1.3079
B(  3-C ,  8-C ) :   1.2245 B(  4-C ,  5-C ) :   1.3536 B(  4-C , 13-H ) :   0.9333
B(  5-C ,  6-C ) :   1.3075 B(  5-C , 14-H ) :   0.9221 B(  6-C ,  7-N ) :   1.3715
B(  6-C , 15-H ) :   0.9499 B(  7-N ,  8-C ) :   1.4541

MP2 TOTAL ENERGY:     -363.013138981 Eh
FINAL SINGLE POINT ENERGY      -363.013138981406

DIPOLE MOMENT
-------------
                                X             Y             Z
Electronic contribution:     -0.70932      -1.42598      -0.00119
Nuclear contribution   :      1.44364       1.49287      -0.00540
                        -----------------------------------------
Total Dipole Moment    :      0.73432       0.06690      -0.00660
                        -----------------------------------------
Magnitude (a.u.)       :      0.73739
Magnitude (Debye)      :      1.87430

                             ****ORCA TERMINATED NORMALLY****
TOTAL RUN TIME: 0 days 0 hours 18 minutes 26 seconds 397 msec
