                         Program Version 3.0.3 - RELEASE   -
|  1> ! RI-MP2 RIJK def2-TZVP def2-TZVP/C def2-TZVP/JK TIGHTSCF
|  2> % maxcore 2000
|  3> % mp2 density relaxed end
|  4> *xyz 0 1
|  5>  O        0.0032067347     1.3949269826    -0.0521046206
|  6>  C        0.0170035557    -0.0145453325     0.0364875422
|  7>  C        0.5899873020    -0.5559645871     1.3793416803
|  8>  N       -0.1843385201    -1.7654902260     1.5661539277
|  9>  C       -0.1040963616    -2.8730175416     2.3674247175
| 10>  C       -1.2214393316    -3.6401026691     2.1073569297
| 11>  C       -2.0031516974    -2.9660324627     1.1219158945
| 12>  C       -1.3330524330    -1.8048750494     0.8131396746
| 13>  C       -1.4294172119    -0.5636368514    -0.0187151845
| 14>  H        0.9003057348     1.7013046924    -0.2159536721
| 15>  H        0.5949649959    -0.4521828108    -0.7897962820
| 16>  H        1.6637767424    -0.7645980875     1.3375148882
| 17>  H        0.4042848100     0.1765107586     2.1758079624
| 18>  H        0.7278571276    -3.0297774019     3.0349114388
| 19>  H       -1.4488042841    -4.5913712107     2.5646919491
| 20>  H       -2.9361622517    -3.3031502137     0.6972744780
| 21>  H       -2.1012440779     0.1849586520     0.4219691545
| 22>  H       -1.7623295640    -0.7378068413    -1.0449824484
| 23> *
| 24>
| 25>                          ****END OF INPUT****

CARTESIAN COORDINATES (ANGSTROEM)
---------------------------------
  O      0.003207    1.394927   -0.052105
  C      0.017004   -0.014545    0.036488
  C      0.589987   -0.555965    1.379342
  N     -0.184339   -1.765490    1.566154
  C     -0.104096   -2.873018    2.367425
  C     -1.221439   -3.640103    2.107357
  C     -2.003152   -2.966032    1.121916
  C     -1.333052   -1.804875    0.813140
  C     -1.429417   -0.563637   -0.018715
  H      0.900306    1.701305   -0.215954
  H      0.594965   -0.452183   -0.789796
  H      1.663777   -0.764598    1.337515
  H      0.404285    0.176511    2.175808
  H      0.727857   -3.029777    3.034911
  H     -1.448804   -4.591371    2.564692
  H     -2.936162   -3.303150    0.697274
  H     -2.101244    0.184959    0.421969
  H     -1.762330   -0.737807   -1.044982

 Total Charge           Charge          ....    0
 Multiplicity           Mult            ....    1
 Number of Electrons    NEL             ....   66
 Basis Dimension        Dim             ....  333

ORBITAL ENERGIES
----------------

  NO   OCC          E(Eh)            E(eV)
   0   2.0000     -20.571279      -559.7730
   1   2.0000     -15.596203      -424.3943
   2   2.0000     -11.299511      -307.4753
   3   2.0000     -11.274768      -306.8020
   4   2.0000     -11.247963      -306.0726
   5   2.0000     -11.243134      -305.9412
   6   2.0000     -11.235712      -305.7393
   7   2.0000     -11.205111      -304.9066
   8   2.0000     -11.200779      -304.7887
   9   2.0000      -1.379771       -37.5455
  10   2.0000      -1.307175       -35.5700
  11   2.0000      -1.094945       -29.7950
  12   2.0000      -1.042458       -28.3667
  13   2.0000      -0.955593       -26.0030
  14   2.0000      -0.925318       -25.1792
  15   2.0000      -0.819908       -22.3108
  16   2.0000      -0.776643       -21.1335
  17   2.0000      -0.736010       -20.0279
  18   2.0000      -0.723099       -19.6765
  19   2.0000      -0.685639       -18.6572
  20   2.0000      -0.635284       -17.2870
  21   2.0000      -0.611041       -16.6273
  22   2.0000      -0.593436       -16.1482
  23   2.0000      -0.571161       -15.5421
  24   2.0000      -0.560129       -15.2419
  25   2.0000      -0.541474       -14.7343
  26   2.0000      -0.535888       -14.5823
  27   2.0000      -0.523521       -14.2457
  28   2.0000      -0.512294       -13.9402
  29   2.0000      -0.474731       -12.9181
  30   2.0000      -0.450095       -12.2477
  31   2.0000      -0.331833        -9.0296
  32   2.0000      -0.286206        -7.7880
  33   0.0000       0.121868         3.3162
  34   0.0000       0.154455         4.2029
  35   0.0000       0.163283         4.4432
  36   0.0000       0.167136         4.5480
  37   0.0000       0.182482         4.9656

MULLIKEN ATOMIC CHARGES
-----------------------
   0 O :   -0.454486
   1 C :    0.051274
   2 C :   -0.186014
   3 N :    0.009406
   4 C :   -0.193280
   5 C :   -0.115488
   6 C :   -0.301996
   7 C :    0.023313
   8 C :   -0.139489
   9 H :    0.320350
  10 H :    0.091334
  11 H :    0.129734
  12 H :    0.121560
  13 H :    0.138097
  14 H :    0.126578
  15 H :    0.121354
  16 H :    0.123943
  17 H :    0.133809
Sum of atomic charges:    0.0000000

LOEWDIN ATOMIC CHARGES
----------------------
   0 O :   -0.012697
   1 C :   -0.323325
   2 C :   -0.215923
   3 N :    0.276438
   4 C :   -0.227999
   5 C :   -0.198433
   6 C :   -0.179224
   7 C :   -0.205333
   8 C :   -0.196735
   9 H :    0.177398
  10 H :    0.136072
  11 H :    0.131841
  12 H :    0.136752
  13 H :    0.132286
  14 H :    0.136478
  15 H :    0.137723
  16 H :    0.150584
  17 H :    0.144098

  Mayer bond orders larger than 0.1
B(  0-O ,  1-C ) :   1.0402 B(  0-O ,  9-H ) :   0.8444 B(  1-C ,  2-C ) :   0.9447
B(  1-C ,  8-C ) :   0.9372 B(  1-C , 10-H ) :   0.9398 B(  2-C ,  3-N ) :   0.8753
B(  2-C , 11-H ) :   0.9177 B(  2-C , 12-H ) :   0.9019 B(  3-N ,  4-C ) :   1.1551
B(  3-N ,  7-C ) :   1.1048 B(  4-C ,  5-C ) :   1.4472 B(  4-C , 13-H ) :   0.9196
B(  5-C ,  6-C ) :   1.2782 B(  5-C , 14-H ) :   0.9318 B(  6-C ,  7-C ) :   1.4422
B(  6-C , 15-H ) :   0.9440 B(  7-C ,  8-C ) :   0.9022 B(  8-C , 16-H ) :   0.8911
B(  8-C , 17-H ) :   0.9294

MP2 TOTAL ENERGY:     -401.299380930 Eh
FINAL SINGLE POINT ENERGY      -401.299380930047

DIPOLE MOMENT
-------------
                                X             Y             Z
Electronic contribution:     -0.28036      -0.58343       0.54407
Nuclear contribution   :      1.26138       1.02925      -0.77797
                        -----------------------------------------
Total Dipole Moment    :      0.98102       0.44582      -0.23390
                        -----------------------------------------
Magnitude (a.u.)       :      1.10266
Magnitude (Debye)      :      2.80274

                             ****ORCA TERMINATED NORMALLY****
TOTAL RUN TIME: 0 days 0 hours 18 minutes 18 seconds 10 msec
