                         Program Version 3.0.3 - RELEASE   -
|  1> ! RI-MP2 RIJK def2-TZVP def2-TZVP/C def2-TZVP/JK TIGHTSCF
|  2> % maxcore 2000
|  3> % mp2 density relaxed end
|  4> *xyz 0 1
|  5>  C       -0.1580985828     1.5692638674     0.0026904185
|  6>  C        0.0447117485     0.0546882292    -0.0023734283
|  7>  C        0.8756442925    -0.4921702013    -1.1994894448
|  8>  C        1.6114352959    -1.6984941792    -0.6176176990
|  9>  C        2.5942558098    -1.4750765379     0.5232948016
| 10>  C        2.3082430954    -0.1485515956     1.2255361084
| 11>  C        0.7853112271    -0.5220954933     1.2187420006
| 12>  C        1.1834330947    -1.9650893132     0.8006852485
| 13>  H        0.7980981645     2.1024269601     0.0437995522
| 14>  H       -0.6807257942     1.9004954343    -0.9011006877
| 15>  H       -0.7544355196     1.8876418900     0.8648340206
| 16>  H       -0.9432410013    -0.4260543829    -0.0314665941
| 17>  H        0.2337501717    -0.7799271103    -2.0381312111
| 18>  H        1.5706665468     0.2668499066    -1.5793482450
| 19>  H        1.8365124664    -2.5460150563    -1.2560188673
| 20>  H        3.5241373936    -2.0308249279     0.5689620034
| 21>  H        2.7093372206    -0.1422632141     2.2424116044
| 22>  H        2.6110455492     0.7789131048     0.7260435366
| 23>  H        0.2615286174    -0.3839352808     2.1655731540
| 24>  H        0.8232784936    -2.9055951596     1.1958455585
| 25> *
| 26>
| 27>                          ****END OF INPUT****

CARTESIAN COORDINATES (ANGSTROEM)
---------------------------------
  C     -0.158099    1.569264    0.002690
  C      0.044712    0.054688   -0.002373
  C      0.875644   -0.492170   -1.199489
  C      1.611435   -1.698494   -0.617618
  C      2.594256   -1.475077    0.523295
  C      2.308243   -0.148552    1.225536
  C      0.785311   -0.522095    1.218742
  C      1.183433   -1.965089    0.800685
  H      0.798098    2.102427    0.043800
  H     -0.680726    1.900495   -0.901101
  H     -0.754436    1.887642    0.864834
  H     -0.943241   -0.426054   -0.031467
  H      0.233750   -0.779927   -2.038131
  H      1.570667    0.266850   -1.579348
  H      1.836512   -2.546015   -1.256019
  H      3.524137   -2.030825    0.568962
  H      2.709337   -0.142263    2.242412
  H      2.611046    0.778913    0.726044
  H      0.261529   -0.383935    2.165573
  H      0.823278   -2.905595    1.195846

 Total Charge           Charge          ....    0
 Multiplicity           Mult            ....    1
 Number of Electrons    NEL             ....   60
 Basis Dimension        Dim             ....  320

ORBITAL ENERGIES
----------------

  NO   OCC          E(Eh)            E(eV)
   0   2.0000     -11.224165      -305.4251
   1   2.0000     -11.223678      -305.4118
   2   2.0000     -11.223008      -305.3936
   3   2.0000     -11.219890      -305.3087
   4   2.0000     -11.219015      -305.2849
   5   2.0000     -11.217139      -305.2339
   6   2.0000     -11.213018      -305.1217
   7   2.0000     -11.208422      -304.9967
   8   2.0000      -1.203306       -32.7436
   9   2.0000      -1.047590       -28.5064
  10   2.0000      -0.987812       -26.8797
  11   2.0000      -0.919796       -25.0289
  12   2.0000      -0.890667       -24.2363
  13   2.0000      -0.775636       -21.1061
  14   2.0000      -0.750194       -20.4138
  15   2.0000      -0.707236       -19.2449
  16   2.0000      -0.695198       -18.9173
  17   2.0000      -0.628689       -17.1075
  18   2.0000      -0.591900       -16.1064
  19   2.0000      -0.563799       -15.3417
  20   2.0000      -0.549139       -14.9428
  21   2.0000      -0.546378       -14.8677
  22   2.0000      -0.536403       -14.5963
  23   2.0000      -0.499951       -13.6043
  24   2.0000      -0.482350       -13.1254
  25   2.0000      -0.451422       -12.2838
  26   2.0000      -0.434135       -11.8134
  27   2.0000      -0.429199       -11.6791
  28   2.0000      -0.382937       -10.4202
  29   2.0000      -0.369589       -10.0570
  30   0.0000       0.138777         3.7763
  31   0.0000       0.162143         4.4121
  32   0.0000       0.164609         4.4792
  33   0.0000       0.175747         4.7823
  34   0.0000       0.194122         5.2823

MULLIKEN ATOMIC CHARGES
-----------------------
   0 C :   -0.408120
   1 C :   -0.098518
   2 C :   -0.213431
   3 C :   -0.143104
   4 C :   -0.109706
   5 C :   -0.273376
   6 C :    0.043699
   7 C :   -0.210252
   8 H :    0.121161
   9 H :    0.132801
  10 H :    0.128809
  11 H :    0.084453
  12 H :    0.119825
  13 H :    0.106928
  14 H :    0.122303
  15 H :    0.123232
  16 H :    0.115480
  17 H :    0.103832
  18 H :    0.119057
  19 H :    0.134927
Sum of atomic charges:    0.0000000

LOEWDIN ATOMIC CHARGES
----------------------
   0 C :   -0.296910
   1 C :   -0.247324
   2 C :   -0.208682
   3 C :   -0.180106
   4 C :   -0.168994
   5 C :   -0.194857
   6 C :   -0.168278
   7 C :   -0.141406
   8 H :    0.121454
   9 H :    0.123915
  10 H :    0.122873
  11 H :    0.153058
  12 H :    0.135996
  13 H :    0.137806
  14 H :    0.147227
  15 H :    0.132550
  16 H :    0.136867
  17 H :    0.122665
  18 H :    0.140597
  19 H :    0.131548

  Mayer bond orders larger than 0.1
B(  0-C ,  1-C ) :   0.9039 B(  0-C ,  8-H ) :   0.9338 B(  0-C ,  9-H ) :   0.9402
B(  0-C , 10-H ) :   0.9417 B(  1-C ,  2-C ) :   0.9679 B(  1-C ,  6-C ) :   0.8938
B(  1-C , 11-H ) :   0.9228 B(  2-C ,  3-C ) :   0.9285 B(  2-C , 12-H ) :   0.9258
B(  2-C , 13-H ) :   0.9181 B(  3-C ,  4-C ) :   0.8490 B(  3-C ,  7-C ) :   0.9026
B(  3-C , 14-H ) :   0.9336 B(  4-C ,  5-C ) :   0.9663 B(  4-C ,  7-C ) :   0.8511
B(  4-C , 15-H ) :   0.9299 B(  5-C ,  6-C ) :   0.9364 B(  5-C , 16-H ) :   0.9282
B(  5-C , 17-H ) :   0.9216 B(  6-C ,  7-C ) :   0.8846 B(  6-C , 18-H ) :   0.9193
B(  7-C , 19-H ) :   0.9141

MP2 TOTAL ENERGY:     -311.280319079 Eh
FINAL SINGLE POINT ENERGY      -311.280319078694

DIPOLE MOMENT
-------------
                                X             Y             Z
Electronic contribution:      1.49394      -4.00241       0.80290
Nuclear contribution   :     -1.56444       3.94808      -0.77145
                        -----------------------------------------
Total Dipole Moment    :     -0.07050      -0.05433       0.03145
                        -----------------------------------------
Magnitude (a.u.)       :      0.09440
Magnitude (Debye)      :      0.23995

                             ****ORCA TERMINATED NORMALLY****
TOTAL RUN TIME: 0 days 0 hours 15 minutes 0 seconds 575 msec
