                         Program Version 3.0.3 - RELEASE   -
|  1> ! RI-MP2 RIJK def2-TZVP def2-TZVP/C def2-TZVP/JK TIGHTSCF
|  2> % maxcore 2000
|  3> % mp2 density relaxed end
|  4> *xyz 0 1
|  5>  C        0.1316613354     1.5906299789    -0.0591367215
|  6>  C       -0.0125800281     0.0725490470     0.0776102236
|  7>  C       -1.4747781039    -0.4407540634     0.0409295646
|  8>  C       -2.2777204868     0.0712397517     1.2366661119
|  9>  O       -2.1399354553     0.0346847164    -1.1295691458
| 10>  C       -1.4575625588    -1.9929222277    -0.0129933292
| 11>  C       -2.8390579836    -2.6384282023     0.0631111964
| 12>  O       -0.8321691624    -2.3045652224    -1.2664700917
| 13>  H        1.1845676422     1.8676766055    -0.1700824831
| 14>  H       -0.4123921517     1.9466161012    -0.9378959507
| 15>  H       -0.2549843439     2.1250100618     0.8142985627
| 16>  H        0.5314910676    -0.4181921296    -0.7356128266
| 17>  H        0.4553850880    -0.2691608505     1.0103889513
| 18>  H       -2.2421231254     1.1619687764     1.2769348200
| 19>  H       -3.3267742506    -0.2200464907     1.1548938265
| 20>  H       -1.8736694879    -0.3195095805     2.1762976732
| 21>  H       -1.7639057470    -0.4755533056    -1.8593944531
| 22>  H       -0.8300290063    -2.3639907760     0.8125371316
| 23>  H       -3.5090868642    -2.1840235808    -0.6715398037
| 24>  H       -2.7674858155    -3.7136941587    -0.1415241349
| 25>  H       -3.2798426333    -2.5298731690     1.0572745566
| 26>  H       -1.0082728583    -3.2272135119    -1.4711869882
| 27> *
| 28>
| 29>                          ****END OF INPUT****

CARTESIAN COORDINATES (ANGSTROEM)
---------------------------------
  C      0.131661    1.590630   -0.059137
  C     -0.012580    0.072549    0.077610
  C     -1.474778   -0.440754    0.040930
  C     -2.277720    0.071240    1.236666
  O     -2.139935    0.034685   -1.129569
  C     -1.457563   -1.992922   -0.012993
  C     -2.839058   -2.638428    0.063111
  O     -0.832169   -2.304565   -1.266470
  H      1.184568    1.867677   -0.170082
  H     -0.412392    1.946616   -0.937896
  H     -0.254984    2.125010    0.814299
  H      0.531491   -0.418192   -0.735613
  H      0.455385   -0.269161    1.010389
  H     -2.242123    1.161969    1.276935
  H     -3.326774   -0.220046    1.154894
  H     -1.873669   -0.319510    2.176298
  H     -1.763906   -0.475553   -1.859394
  H     -0.830029   -2.363991    0.812537
  H     -3.509087   -2.184024   -0.671540
  H     -2.767486   -3.713694   -0.141524
  H     -3.279843   -2.529873    1.057275
  H     -1.008273   -3.227214   -1.471187

 Total Charge           Charge          ....    0
 Multiplicity           Mult            ....    1
 Number of Electrons    NEL             ....   66
 Basis Dimension        Dim             ....  332

ORBITAL ENERGIES
----------------

  NO   OCC          E(Eh)            E(eV)
   0   2.0000     -20.564410      -559.5860
   1   2.0000     -20.538685      -558.8860
   2   2.0000     -11.284152      -307.0574
   3   2.0000     -11.279577      -306.9329
   4   2.0000     -11.221876      -305.3628
   5   2.0000     -11.210215      -305.0455
   6   2.0000     -11.209716      -305.0319
   7   2.0000     -11.201881      -304.8187
   8   2.0000      -1.378998       -37.5244
   9   2.0000      -1.341222       -36.4965
  10   2.0000      -1.069111       -29.0920
  11   2.0000      -1.014132       -27.5959
  12   2.0000      -0.964873       -26.2555
  13   2.0000      -0.897547       -24.4235
  14   2.0000      -0.825357       -22.4591
  15   2.0000      -0.757716       -20.6185
  16   2.0000      -0.704543       -19.1716
  17   2.0000      -0.663121       -18.0444
  18   2.0000      -0.642699       -17.4887
  19   2.0000      -0.628838       -17.1115
  20   2.0000      -0.607120       -16.5206
  21   2.0000      -0.561527       -15.2799
  22   2.0000      -0.557531       -15.1712
  23   2.0000      -0.545604       -14.8466
  24   2.0000      -0.533627       -14.5207
  25   2.0000      -0.528437       -14.3795
  26   2.0000      -0.515581       -14.0297
  27   2.0000      -0.506425       -13.7805
  28   2.0000      -0.495342       -13.4789
  29   2.0000      -0.473578       -12.8867
  30   2.0000      -0.465147       -12.6573
  31   2.0000      -0.438201       -11.9241
  32   2.0000      -0.414710       -11.2848
  33   0.0000       0.126559         3.4438
  34   0.0000       0.150819         4.1040
  35   0.0000       0.169613         4.6154
  36   0.0000       0.171277         4.6607
  37   0.0000       0.197347         5.3701

MULLIKEN ATOMIC CHARGES
-----------------------
   0 C :   -0.419447
   1 C :   -0.207362
   2 C :    0.281333
   3 C :   -0.454693
   4 O :   -0.494281
   5 C :    0.039698
   6 C :   -0.431376
   7 O :   -0.492534
   8 H :    0.131677
   9 H :    0.144551
  10 H :    0.119474
  11 H :    0.130167
  12 H :    0.097714
  13 H :    0.146748
  14 H :    0.142349
  15 H :    0.125784
  16 H :    0.325516
  17 H :    0.082864
  18 H :    0.153280
  19 H :    0.122794
  20 H :    0.139386
  21 H :    0.316358
Sum of atomic charges:    0.0000000

LOEWDIN ATOMIC CHARGES
----------------------
   0 C :   -0.320776
   1 C :   -0.260378
   2 C :   -0.390326
   3 C :   -0.265328
   4 O :    0.007645
   5 C :   -0.333580
   6 C :   -0.306127
   7 O :   -0.031318
   8 H :    0.120184
   9 H :    0.125768
  10 H :    0.116701
  11 H :    0.143670
  12 H :    0.137993
  13 H :    0.130582
  14 H :    0.128310
  15 H :    0.128639
  16 H :    0.177963
  17 H :    0.137946
  18 H :    0.131066
  19 H :    0.119816
  20 H :    0.128246
  21 H :    0.173302

  Mayer bond orders larger than 0.1
B(  0-C ,  1-C ) :   0.9160 B(  0-C ,  8-H ) :   0.9419 B(  0-C ,  9-H ) :   0.9368
B(  0-C , 10-H ) :   0.9407 B(  1-C ,  2-C ) :   0.9315 B(  1-C , 11-H ) :   0.9244
B(  1-C , 12-H ) :   0.9196 B(  2-C ,  3-C ) :   0.8649 B(  2-C ,  4-O ) :   0.9200
B(  2-C ,  5-C ) :   0.8981 B(  3-C , 13-H ) :   0.9412 B(  3-C , 14-H ) :   0.9422
B(  3-C , 15-H ) :   0.9353 B(  4-O , 16-H ) :   0.8212 B(  5-C ,  6-C ) :   0.9184
B(  5-C ,  7-O ) :   0.9385 B(  5-C , 17-H ) :   0.9291 B(  6-C , 18-H ) :   0.9307
B(  6-C , 19-H ) :   0.9360 B(  6-C , 20-H ) :   0.9316 B(  7-O , 21-H ) :   0.8430

MP2 TOTAL ENERGY:     -386.729264013 Eh
FINAL SINGLE POINT ENERGY      -386.729264013291

DIPOLE MOMENT
-------------
                                X             Y             Z
Electronic contribution:     -0.02814      -2.27311      -4.03072
Nuclear contribution   :      0.09071       1.35826       4.34588
                        -----------------------------------------
Total Dipole Moment    :      0.06258      -0.91486       0.31517
                        -----------------------------------------
Magnitude (a.u.)       :      0.96964
Magnitude (Debye)      :      2.46464

                             ****ORCA TERMINATED NORMALLY****
TOTAL RUN TIME: 0 days 0 hours 15 minutes 28 seconds 348 msec
