                         Program Version 3.0.3 - RELEASE   -
|  1> ! RI-MP2 RIJK def2-TZVP def2-TZVP/C def2-TZVP/JK TIGHTSCF
|  2> % maxcore 2000
|  3> % mp2 density relaxed end
|  4> *xyz 0 1
|  5>  C        0.4258891819     1.2343316690    -2.5966813139
|  6>  O        0.6882209858    -0.1071322475    -2.2688642322
|  7>  C       -0.2553683074    -0.6397172755    -1.3518506311
|  8>  C        0.0387901417    -2.0884587821    -1.1327385600
|  9>  C        0.1872242400    -2.7318966141     0.0330497036
| 10>  C        0.1303152886    -2.1836644960     1.4249151017
| 11>  C        0.3813574127    -4.2198564452    -0.1861983755
| 12>  C        0.6829622255    -4.3335323227    -1.6980402145
| 13>  C        0.1181938432    -3.0331193487    -2.3153988789
| 14>  H       -0.5663496218     1.3573702332    -3.0610605389
| 15>  H        0.4693435370     1.8905284508    -1.7120620062
| 16>  H        1.1906150931     1.5541742986    -3.3089539136
| 17>  H       -0.2307435492    -0.0722824633    -0.4084360348
| 18>  H       -1.2740444960    -0.5202533099    -1.7683452280
| 19>  H       -0.7090497596    -2.6186251278     1.9838260672
| 20>  H        1.0389714445    -2.4446670129     1.9823361554
| 21>  H        0.0193789020    -1.0970427543     1.4512857583
| 22>  H        1.1826043280    -4.6335477638     0.4386155508
| 23>  H       -0.5322816058    -4.7657613484     0.0942483043
| 24>  H        1.7664872326    -4.3665024963    -1.8501016086
| 25>  H        0.2662509650    -5.2373635388    -2.1498736393
| 26>  H       -0.8826963787    -3.1854763444    -2.7478486991
| 27>  H        0.7431897768    -2.6344355100    -3.1197048464
| 28> *
| 29>
| 30>                          ****END OF INPUT****

CARTESIAN COORDINATES (ANGSTROEM)
---------------------------------
  C      0.425889    1.234332   -2.596681
  O      0.688221   -0.107132   -2.268864
  C     -0.255368   -0.639717   -1.351851
  C      0.038790   -2.088459   -1.132739
  C      0.187224   -2.731897    0.033050
  C      0.130315   -2.183664    1.424915
  C      0.381357   -4.219856   -0.186198
  C      0.682962   -4.333532   -1.698040
  C      0.118194   -3.033119   -2.315399
  H     -0.566350    1.357370   -3.061061
  H      0.469344    1.890528   -1.712062
  H      1.190615    1.554174   -3.308954
  H     -0.230744   -0.072282   -0.408436
  H     -1.274044   -0.520253   -1.768345
  H     -0.709050   -2.618625    1.983826
  H      1.038971   -2.444667    1.982336
  H      0.019379   -1.097043    1.451286
  H      1.182604   -4.633548    0.438616
  H     -0.532282   -4.765761    0.094248
  H      1.766487   -4.366502   -1.850102
  H      0.266251   -5.237364   -2.149874
  H     -0.882696   -3.185476   -2.747849
  H      0.743190   -2.634436   -3.119705

 Total Charge           Charge          ....    0
 Multiplicity           Mult            ....    1
 Number of Electrons    NEL             ....   70
 Basis Dimension        Dim             ....  363

ORBITAL ENERGIES
----------------

  NO   OCC          E(Eh)            E(eV)
   0   2.0000     -20.551537      -559.2358
   1   2.0000     -11.274402      -306.7921
   2   2.0000     -11.268137      -306.6216
   3   2.0000     -11.222964      -305.3924
   4   2.0000     -11.219509      -305.2984
   5   2.0000     -11.216298      -305.2110
   6   2.0000     -11.214461      -305.1610
   7   2.0000     -11.212403      -305.1050
   8   2.0000     -11.210701      -305.0587
   9   2.0000      -1.371594       -37.3230
  10   2.0000      -1.133978       -30.8571
  11   2.0000      -1.009111       -27.4593
  12   2.0000      -1.000447       -27.2236
  13   2.0000      -0.925853       -25.1937
  14   2.0000      -0.900405       -24.5013
  15   2.0000      -0.861084       -23.4313
  16   2.0000      -0.782057       -21.2808
  17   2.0000      -0.690351       -18.7854
  18   2.0000      -0.659932       -17.9577
  19   2.0000      -0.651109       -17.7176
  20   2.0000      -0.641084       -17.4448
  21   2.0000      -0.622985       -16.9523
  22   2.0000      -0.592123       -16.1125
  23   2.0000      -0.576346       -15.6832
  24   2.0000      -0.565046       -15.3757
  25   2.0000      -0.541768       -14.7423
  26   2.0000      -0.533377       -14.5139
  27   2.0000      -0.504467       -13.7272
  28   2.0000      -0.489969       -13.3327
  29   2.0000      -0.472713       -12.8632
  30   2.0000      -0.470574       -12.8050
  31   2.0000      -0.465385       -12.6638
  32   2.0000      -0.455486       -12.3944
  33   2.0000      -0.420276       -11.4363
  34   2.0000      -0.324267        -8.8238
  35   0.0000       0.136938         3.7263
  36   0.0000       0.148574         4.0429
  37   0.0000       0.158680         4.3179
  38   0.0000       0.169975         4.6253
  39   0.0000       0.182966         4.9787

MULLIKEN ATOMIC CHARGES
-----------------------
   0 C :   -0.216380
   1 O :   -0.298535
   2 C :   -0.095013
   3 C :    0.015788
   4 C :   -0.007363
   5 C :   -0.413886
   6 C :   -0.197555
   7 C :   -0.227545
   8 C :   -0.199103
   9 H :    0.108361
  10 H :    0.108878
  11 H :    0.138589
  12 H :    0.087292
  13 H :    0.099893
  14 H :    0.138647
  15 H :    0.139566
  16 H :    0.127234
  17 H :    0.117302
  18 H :    0.108921
  19 H :    0.109854
  20 H :    0.119158
  21 H :    0.101944
  22 H :    0.133953
Sum of atomic charges:   -0.0000000

LOEWDIN ATOMIC CHARGES
----------------------
   0 C :   -0.366335
   1 O :    0.136331
   2 C :   -0.286340
   3 C :   -0.151508
   4 C :   -0.161882
   5 C :   -0.273898
   6 C :   -0.216135
   7 C :   -0.238307
   8 C :   -0.212884
   9 H :    0.100018
  10 H :    0.100464
  11 H :    0.113126
  12 H :    0.123747
  13 H :    0.126224
  14 H :    0.131884
  15 H :    0.131688
  16 H :    0.124837
  17 H :    0.135521
  18 H :    0.138933
  19 H :    0.137373
  20 H :    0.129369
  21 H :    0.137817
  22 H :    0.139958

  Mayer bond orders larger than 0.1
B(  0-C ,  1-O ) :   0.9249 B(  0-C ,  9-H ) :   0.9359 B(  0-C , 10-H ) :   0.9372
B(  0-C , 11-H ) :   0.9395 B(  1-O ,  2-C ) :   0.9764 B(  2-C ,  3-C ) :   0.9475
B(  2-C , 12-H ) :   0.9294 B(  2-C , 13-H ) :   0.9116 B(  3-C ,  4-C ) :   1.6913
B(  3-C ,  8-C ) :   0.9331 B(  4-C ,  5-C ) :   0.8843 B(  4-C ,  6-C ) :   0.9465
B(  5-C , 14-H ) :   0.9294 B(  5-C , 15-H ) :   0.9367 B(  5-C , 16-H ) :   0.9505
B(  6-C ,  7-C ) :   0.9443 B(  6-C , 17-H ) :   0.9320 B(  6-C , 18-H ) :   0.9058
B(  7-C ,  8-C ) :   0.9477 B(  7-C , 19-H ) :   0.9327 B(  7-C , 20-H ) :   0.9383
B(  8-C , 21-H ) :   0.9022 B(  8-C , 22-H ) :   0.9316

MP2 TOTAL ENERGY:     -387.617173435 Eh
FINAL SINGLE POINT ENERGY      -387.617173435089

DIPOLE MOMENT
-------------
                                X             Y             Z
Electronic contribution:      0.86061      -0.19055      -1.49699
Nuclear contribution   :     -1.20873       0.39195       1.72816
                        -----------------------------------------
Total Dipole Moment    :     -0.34812       0.20140       0.23117
                        -----------------------------------------
Magnitude (a.u.)       :      0.46388
Magnitude (Debye)      :      1.17909

                             ****ORCA TERMINATED NORMALLY****
TOTAL RUN TIME: 0 days 0 hours 19 minutes 2 seconds 264 msec
