                         Program Version 3.0.3 - RELEASE   -
|  1> ! RI-MP2 RIJK def2-TZVP def2-TZVP/C def2-TZVP/JK TIGHTSCF
|  2> % maxcore 2000
|  3> % mp2 density relaxed end
|  4> *xyz 0 1
|  5>  C        0.0568613112     1.0704225767     0.7759200248
|  6>  C        0.0031838085    -0.3431641630     0.1936789154
|  7>  C        0.5686275162    -0.4241413730    -1.2248188688
|  8>  O        1.9570328958    -0.1266859204    -1.1855575505
|  9>  C        2.4059910855     0.8368444375    -2.1173588157
| 10>  C        0.3823764749    -1.8461455853    -1.8194184453
| 11>  O       -0.9819953513    -2.2590939544    -1.7820260709
| 12>  C        0.9271454331    -1.9554816166    -3.1747489008
| 13>  C        1.2974937635    -2.0420932963    -4.3158580858
| 14>  H        1.0841346082     1.4454964339     0.7879094838
| 15>  H       -0.5519283884     1.7672332059     0.1881556451
| 16>  H       -0.3210291210     1.0864811711     1.8025464350
| 17>  H        0.5837262709    -1.0278084952     0.8252254241
| 18>  H       -1.0237042220    -0.7195534467     0.1767534142
| 19>  H        0.0424234457     0.2932331924    -1.8744416201
| 20>  H        2.2402509389     0.5168164176    -3.1534513563
| 21>  H        1.9153488999     1.8093556075    -1.9625401453
| 22>  H        3.4800729057     0.9581055429    -1.9535076146
| 23>  H        0.9187718707    -2.5396837193    -1.1607314733
| 24>  H       -1.4249593082    -1.8638703945    -2.5409774097
| 25>  H        1.6440271123    -2.1330559507    -5.3158370555
| 26> *
| 27>
| 28>                          ****END OF INPUT****

CARTESIAN COORDINATES (ANGSTROEM)
---------------------------------
  C      0.056861    1.070423    0.775920
  C      0.003184   -0.343164    0.193679
  C      0.568628   -0.424141   -1.224819
  O      1.957033   -0.126686   -1.185558
  C      2.405991    0.836844   -2.117359
  C      0.382376   -1.846146   -1.819418
  O     -0.981995   -2.259094   -1.782026
  C      0.927145   -1.955482   -3.174749
  C      1.297494   -2.042093   -4.315858
  H      1.084135    1.445496    0.787909
  H     -0.551928    1.767233    0.188156
  H     -0.321029    1.086481    1.802546
  H      0.583726   -1.027808    0.825225
  H     -1.023704   -0.719553    0.176753
  H      0.042423    0.293233   -1.874442
  H      2.240251    0.516816   -3.153451
  H      1.915349    1.809356   -1.962540
  H      3.480073    0.958106   -1.953508
  H      0.918772   -2.539684   -1.160731
  H     -1.424959   -1.863870   -2.540977
  H      1.644027   -2.133056   -5.315837

 Total Charge           Charge          ....    0
 Multiplicity           Mult            ....    1
 Number of Electrons    NEL             ....   70
 Basis Dimension        Dim             ....  351

ORBITAL ENERGIES
----------------

  NO   OCC          E(Eh)            E(eV)
   0   2.0000     -20.569468      -559.7237
   1   2.0000     -20.556158      -559.3615
   2   2.0000     -11.309766      -307.7544
   3   2.0000     -11.287407      -307.1459
   4   2.0000     -11.269827      -306.6676
   5   2.0000     -11.241082      -305.8854
   6   2.0000     -11.234268      -305.7000
   7   2.0000     -11.217717      -305.2496
   8   2.0000     -11.211939      -305.0924
   9   2.0000      -1.383057       -37.6349
  10   2.0000      -1.369853       -37.2756
  11   2.0000      -1.075354       -29.2619
  12   2.0000      -1.044887       -28.4328
  13   2.0000      -0.979838       -26.6627
  14   2.0000      -0.922474       -25.1018
  15   2.0000      -0.873989       -23.7825
  16   2.0000      -0.802007       -21.8237
  17   2.0000      -0.750624       -20.4255
  18   2.0000      -0.698457       -19.0060
  19   2.0000      -0.679380       -18.4869
  20   2.0000      -0.669611       -18.2210
  21   2.0000      -0.639174       -17.3928
  22   2.0000      -0.610471       -16.6118
  23   2.0000      -0.594890       -16.1878
  24   2.0000      -0.580282       -15.7903
  25   2.0000      -0.558970       -15.2103
  26   2.0000      -0.539109       -14.6699
  27   2.0000      -0.509677       -13.8690
  28   2.0000      -0.497382       -13.5345
  29   2.0000      -0.484979       -13.1969
  30   2.0000      -0.480374       -13.0716
  31   2.0000      -0.465805       -12.6752
  32   2.0000      -0.428814       -11.6686
  33   2.0000      -0.403717       -10.9857
  34   2.0000      -0.385076       -10.4784
  35   0.0000       0.131826         3.5872
  36   0.0000       0.146995         3.9999
  37   0.0000       0.158509         4.3132
  38   0.0000       0.161861         4.4045
  39   0.0000       0.170350         4.6355

MULLIKEN ATOMIC CHARGES
-----------------------
   0 C :   -0.407309
   1 C :   -0.182404
   2 C :    0.098127
   3 O :   -0.333146
   4 C :   -0.225168
   5 C :   -0.009745
   6 O :   -0.459015
   7 C :   -0.073128
   8 C :   -0.126097
   9 H :    0.140202
  10 H :    0.116656
  11 H :    0.136408
  12 H :    0.106101
  13 H :    0.132175
  14 H :    0.067146
  15 H :    0.131175
  16 H :    0.119376
  17 H :    0.137022
  18 H :    0.117157
  19 H :    0.321559
  20 H :    0.192908
Sum of atomic charges:   -0.0000000

LOEWDIN ATOMIC CHARGES
----------------------
   0 C :   -0.318704
   1 C :   -0.272658
   2 C :   -0.305570
   3 O :    0.165193
   4 C :   -0.356561
   5 C :   -0.314189
   6 O :   -0.001498
   7 C :   -0.093579
   8 C :   -0.090818
   9 H :    0.124031
  10 H :    0.118915
  11 H :    0.122046
  12 H :    0.142472
  13 H :    0.143930
  14 H :    0.141591
  15 H :    0.105644
  16 H :    0.101391
  17 H :    0.114014
  18 H :    0.166192
  19 H :    0.179819
  20 H :    0.128336

  Mayer bond orders larger than 0.1
B(  0-C ,  1-C ) :   0.9031 B(  0-C ,  9-H ) :   0.9397 B(  0-C , 10-H ) :   0.9383
B(  0-C , 11-H ) :   0.9416 B(  1-C ,  2-C ) :   0.9250 B(  1-C , 12-H ) :   0.9205
B(  1-C , 13-H ) :   0.9346 B(  2-C ,  3-O ) :   0.8543 B(  2-C ,  5-C ) :   0.9253
B(  2-C , 14-H ) :   0.8939 B(  3-O ,  4-C ) :   0.9001 B(  4-C , 15-H ) :   0.9315
B(  4-C , 16-H ) :   0.9362 B(  4-C , 17-H ) :   0.9403 B(  5-C ,  6-O ) :   0.8971
B(  5-C ,  7-C ) :   1.1730 B(  5-C , 18-H ) :   0.8982 B(  6-O , 19-H ) :   0.8375
B(  7-C ,  8-C ) :   2.5538 B(  8-C , 20-H ) :   0.8972

MP2 TOTAL ENERGY:     -423.466787017 Eh
FINAL SINGLE POINT ENERGY      -423.466787016684

DIPOLE MOMENT
-------------
                                X             Y             Z
Electronic contribution:     -0.03517      -7.32990      -5.07770
Nuclear contribution   :     -0.03310       7.95587       4.44970
                        -----------------------------------------
Total Dipole Moment    :     -0.06826       0.62597      -0.62799
                        -----------------------------------------
Magnitude (a.u.)       :      0.88931
Magnitude (Debye)      :      2.26045

                             ****ORCA TERMINATED NORMALLY****
TOTAL RUN TIME: 0 days 0 hours 18 minutes 52 seconds 75 msec
