                         Program Version 3.0.3 - RELEASE   -
|  1> ! RI-MP2 RIJK def2-TZVP def2-TZVP/C def2-TZVP/JK TIGHTSCF
|  2> % maxcore 2000
|  3> % mp2 density relaxed end
|  4> *xyz 0 1
|  5>  C        0.2961352521     1.6084733844     0.0935485000
|  6>  C        0.2034313699     0.1045201809    -0.0249022140
|  7>  C        0.6330231143    -0.7090077696    -1.2289145014
|  8>  C        1.9426827016    -0.1787722294    -1.8364346303
|  9>  N        2.5634831576    -0.3048327019    -0.5063789937
| 10>  C        1.3645657035    -0.8438422681     0.1088240887
| 11>  C        3.6355961127     0.2797958331     0.1029117874
| 12>  C        4.6110676170     0.9695011826    -0.8391520133
| 13>  O        3.7990013720     0.2156035089     1.3083574850
| 14>  H        1.2417561889     1.9915793340    -0.2981899820
| 15>  H       -0.5165568608     2.0960186260    -0.4554444838
| 16>  H        0.2301084725     1.9161484367     1.1417499367
| 17>  H       -0.6959172218    -0.3181106850     0.4207543875
| 18>  H       -0.0155153871    -1.4211816732    -1.7196432715
| 19>  H        2.3844609412    -0.8607063032    -2.5713372380
| 20>  H        1.9244307662     0.8352807434    -2.2522723896
| 21>  H        1.4214562972    -1.6599879308     0.8174043377
| 22>  H        4.1965015549     1.9216590876    -1.1892724309
| 23>  H        5.5334255352     1.1708943808    -0.2947061448
| 24>  H        4.8277216828     0.3592497829    -1.7210788197
| 25> *
| 26>
| 27>                          ****END OF INPUT****

CARTESIAN COORDINATES (ANGSTROEM)
---------------------------------
  C      0.296135    1.608473    0.093548
  C      0.203431    0.104520   -0.024902
  C      0.633023   -0.709008   -1.228915
  C      1.942683   -0.178772   -1.836435
  N      2.563483   -0.304833   -0.506379
  C      1.364566   -0.843842    0.108824
  C      3.635596    0.279796    0.102912
  C      4.611068    0.969501   -0.839152
  O      3.799001    0.215604    1.308357
  H      1.241756    1.991579   -0.298190
  H     -0.516557    2.096019   -0.455444
  H      0.230108    1.916148    1.141750
  H     -0.695917   -0.318111    0.420754
  H     -0.015515   -1.421182   -1.719643
  H      2.384461   -0.860706   -2.571337
  H      1.924431    0.835281   -2.252272
  H      1.421456   -1.659988    0.817404
  H      4.196502    1.921659   -1.189272
  H      5.533426    1.170894   -0.294706
  H      4.827722    0.359250   -1.721079

 Total Charge           Charge          ....    0
 Multiplicity           Mult            ....    1
 Number of Electrons    NEL             ....   68
 Basis Dimension        Dim             ....  345

ORBITAL ENERGIES
----------------

  NO   OCC          E(Eh)            E(eV)
   0   2.0000     -20.507513      -558.0378
   1   2.0000     -15.578291      -423.9068
   2   2.0000     -11.341641      -308.6217
   3   2.0000     -11.281997      -306.9987
   4   2.0000     -11.273467      -306.7666
   5   2.0000     -11.246311      -306.0277
   6   2.0000     -11.245633      -306.0092
   7   2.0000     -11.233457      -305.6779
   8   2.0000     -11.222089      -305.3686
   9   2.0000      -1.373998       -37.3884
  10   2.0000      -1.285647       -34.9842
  11   2.0000      -1.117335       -30.4042
  12   2.0000      -1.008600       -27.4454
  13   2.0000      -0.975149       -26.5352
  14   2.0000      -0.950755       -25.8714
  15   2.0000      -0.835073       -22.7235
  16   2.0000      -0.769970       -20.9520
  17   2.0000      -0.733383       -19.9564
  18   2.0000      -0.691707       -18.8223
  19   2.0000      -0.668821       -18.1995
  20   2.0000      -0.638115       -17.3640
  21   2.0000      -0.610684       -16.6176
  22   2.0000      -0.590855       -16.0780
  23   2.0000      -0.578400       -15.7391
  24   2.0000      -0.568202       -15.4616
  25   2.0000      -0.561551       -15.2806
  26   2.0000      -0.549170       -14.9437
  27   2.0000      -0.521328       -14.1861
  28   2.0000      -0.513613       -13.9761
  29   2.0000      -0.496911       -13.5216
  30   2.0000      -0.447828       -12.1860
  31   2.0000      -0.418620       -11.3912
  32   2.0000      -0.401692       -10.9306
  33   2.0000      -0.354880        -9.6568
  34   0.0000       0.125128         3.4049
  35   0.0000       0.148655         4.0451
  36   0.0000       0.160489         4.3671
  37   0.0000       0.168939         4.5971
  38   0.0000       0.184142         5.0108

MULLIKEN ATOMIC CHARGES
-----------------------
   0 C :   -0.385787
   1 C :   -0.087005
   2 C :   -0.148104
   3 C :   -0.180195
   4 N :   -0.110789
   5 C :   -0.040494
   6 C :    0.208782
   7 C :   -0.408478
   8 O :   -0.365726
   9 H :    0.126806
  10 H :    0.134960
  11 H :    0.143126
  12 H :    0.119988
  13 H :    0.144576
  14 H :    0.131816
  15 H :    0.132810
  16 H :    0.145273
  17 H :    0.138523
  18 H :    0.160671
  19 H :    0.139247
Sum of atomic charges:   -0.0000000

LOEWDIN ATOMIC CHARGES
----------------------
   0 C :   -0.285807
   1 C :   -0.214897
   2 C :   -0.165029
   3 C :   -0.204620
   4 N :    0.216965
   5 C :   -0.163105
   6 C :   -0.471708
   7 C :   -0.276419
   8 O :    0.080983
   9 H :    0.126658
  10 H :    0.126645
  11 H :    0.131765
  12 H :    0.161068
  13 H :    0.137192
  14 H :    0.132641
  15 H :    0.126427
  16 H :    0.140435
  17 H :    0.133089
  18 H :    0.137149
  19 H :    0.130567

  Mayer bond orders larger than 0.1
B(  0-C ,  1-C ) :   0.9260 B(  0-C ,  9-H ) :   0.9320 B(  0-C , 10-H ) :   0.9355
B(  0-C , 11-H ) :   0.9362 B(  1-C ,  2-C ) :   0.8643 B(  1-C ,  5-C ) :   0.8816
B(  1-C , 12-H ) :   0.9295 B(  2-C ,  3-C ) :   0.9397 B(  2-C ,  5-C ) :   0.8566
B(  2-C , 13-H ) :   0.9225 B(  3-C ,  4-N ) :   0.9088 B(  3-C , 14-H ) :   0.9156
B(  3-C , 15-H ) :   0.9212 B(  4-N ,  5-C ) :   0.8828 B(  4-N ,  6-C ) :   1.1282
B(  5-C , 16-H ) :   0.9251 B(  6-C ,  7-C ) :   0.9151 B(  6-C ,  8-O ) :   1.9441
B(  7-C , 17-H ) :   0.9133 B(  7-C , 18-H ) :   0.9384 B(  7-C , 19-H ) :   0.9237

MP2 TOTAL ENERGY:     -402.446620086 Eh
FINAL SINGLE POINT ENERGY      -402.446620085596

DIPOLE MOMENT
-------------
                                X             Y             Z
Electronic contribution:      2.18059      -4.01143       3.14836
Nuclear contribution   :     -2.95181       4.00400      -4.47439
                        -----------------------------------------
Total Dipole Moment    :     -0.77122      -0.00743      -1.32603
                        -----------------------------------------
Magnitude (a.u.)       :      1.53401
Magnitude (Debye)      :      3.89914

                             ****ORCA TERMINATED NORMALLY****
TOTAL RUN TIME: 0 days 0 hours 18 minutes 26 seconds 115 msec
