                         Program Version 3.0.3 - RELEASE   -
|  1> ! RI-MP2 RIJK def2-TZVP def2-TZVP/C def2-TZVP/JK TIGHTSCF
|  2> % maxcore 2000
|  3> % mp2 density relaxed end
|  4> *xyz 0 1
|  5>  O       -0.0592486029    -0.0696288985    -0.1496382643
|  6>  C       -0.0014109486     1.1357118562    -0.0645047699
|  7>  C        1.2461072816     1.9033823580     0.0927907345
|  8>  C        1.2081042220     3.2442181815     0.0915693000
|  9>  C        2.4241807307     4.1188653139     0.1614831545
| 10>  C        3.6786074067     3.4359779715     0.7498509095
| 11>  C        3.7532050429     1.9339872442     0.5050596096
| 12>  O        3.1368261381     1.1163068331     1.5049951232
| 13>  C        2.5354521836     1.1694663164     0.1988206864
| 14>  H       -0.9199751063     1.7639080492    -0.1164199714
| 15>  H        0.2443794327     3.7415429121    -0.0123076336
| 16>  H        2.6268973415     4.4703601071    -0.8621318363
| 17>  H        2.1933229738     5.0272069732     0.7288964453
| 18>  H        4.5745703660     3.9193417308     0.3488858522
| 19>  H        3.6996665458     3.5840316531     1.8345252779
| 20>  H        4.7084404423     1.5478189362     0.1508354464
| 21>  H        2.5911410302     0.2351449421    -0.3544189540
| 22> *
| 23>
| 24>                          ****END OF INPUT****

CARTESIAN COORDINATES (ANGSTROEM)
---------------------------------
  O     -0.059249   -0.069629   -0.149638
  C     -0.001411    1.135712   -0.064505
  C      1.246107    1.903382    0.092791
  C      1.208104    3.244218    0.091569
  C      2.424181    4.118865    0.161483
  C      3.678607    3.435978    0.749851
  C      3.753205    1.933987    0.505060
  O      3.136826    1.116307    1.504995
  C      2.535452    1.169466    0.198821
  H     -0.919975    1.763908   -0.116420
  H      0.244379    3.741543   -0.012308
  H      2.626897    4.470360   -0.862132
  H      2.193323    5.027207    0.728896
  H      4.574570    3.919342    0.348886
  H      3.699667    3.584032    1.834525
  H      4.708440    1.547819    0.150835
  H      2.591141    0.235145   -0.354419

 Total Charge           Charge          ....    0
 Multiplicity           Mult            ....    1
 Number of Electrons    NEL             ....   66
 Basis Dimension        Dim             ....  327

ORBITAL ENERGIES
----------------

  NO   OCC          E(Eh)            E(eV)
   0   2.0000     -20.567856      -559.6798
   1   2.0000     -20.552320      -559.2571
   2   2.0000     -11.333242      -308.3932
   3   2.0000     -11.293173      -307.3029
   4   2.0000     -11.292361      -307.2808
   5   2.0000     -11.277196      -306.8681
   6   2.0000     -11.256961      -306.3175
   7   2.0000     -11.250713      -306.1475
   8   2.0000     -11.245743      -306.0122
   9   2.0000      -1.413058       -38.4513
  10   2.0000      -1.390394       -37.8345
  11   2.0000      -1.134609       -30.8743
  12   2.0000      -1.053316       -28.6622
  13   2.0000      -0.968436       -26.3525
  14   2.0000      -0.899526       -24.4773
  15   2.0000      -0.861125       -23.4324
  16   2.0000      -0.813700       -22.1419
  17   2.0000      -0.722359       -19.6564
  18   2.0000      -0.715168       -19.4607
  19   2.0000      -0.668142       -18.1811
  20   2.0000      -0.655008       -17.8237
  21   2.0000      -0.628073       -17.0907
  22   2.0000      -0.624536       -16.9945
  23   2.0000      -0.593220       -16.1423
  24   2.0000      -0.575202       -15.6520
  25   2.0000      -0.541580       -14.7371
  26   2.0000      -0.533571       -14.5192
  27   2.0000      -0.513334       -13.9685
  28   2.0000      -0.493148       -13.4192
  29   2.0000      -0.454697       -12.3729
  30   2.0000      -0.452157       -12.3038
  31   2.0000      -0.421178       -11.4608
  32   2.0000      -0.372920       -10.1477
  33   0.0000       0.081470         2.2169
  34   0.0000       0.124384         3.3847
  35   0.0000       0.154604         4.2070
  36   0.0000       0.168005         4.5716
  37   0.0000       0.172843         4.7033

MULLIKEN ATOMIC CHARGES
-----------------------
   0 O :   -0.276467
   1 C :    0.054346
   2 C :    0.040063
   3 C :   -0.116362
   4 C :   -0.194660
   5 C :   -0.239014
   6 C :    0.072621
   7 O :   -0.322431
   8 C :   -0.036288
   9 H :    0.075999
  10 H :    0.139726
  11 H :    0.137645
  12 H :    0.139572
  13 H :    0.127040
  14 H :    0.133998
  15 H :    0.126897
  16 H :    0.137314
Sum of atomic charges:    0.0000000

LOEWDIN ATOMIC CHARGES
----------------------
   0 O :    0.131016
   1 C :   -0.270476
   2 C :   -0.165097
   3 C :   -0.082701
   4 C :   -0.239169
   5 C :   -0.233213
   6 C :   -0.252599
   7 O :    0.170329
   8 C :   -0.212704
   9 H :    0.117259
  10 H :    0.150949
  11 H :    0.155778
  12 H :    0.148909
  13 H :    0.142920
  14 H :    0.151580
  15 H :    0.137318
  16 H :    0.149901

  Mayer bond orders larger than 0.1
B(  0-O ,  1-C ) :   1.9823 B(  0-O ,  2-C ) :  -0.1059 B(  1-C ,  2-C ) :   0.8855
B(  1-C ,  9-H ) :   0.9804 B(  2-C ,  3-C ) :   1.6434 B(  2-C ,  8-C ) :   0.8966
B(  2-C ,  9-H ) :  -0.1062 B(  3-C ,  4-C ) :   0.9330 B(  3-C , 10-H ) :   0.9133
B(  4-C ,  5-C ) :   0.9536 B(  4-C , 11-H ) :   0.9024 B(  4-C , 12-H ) :   0.9350
B(  5-C ,  6-C ) :   0.9080 B(  5-C , 13-H ) :   0.9358 B(  5-C , 14-H ) :   0.9219
B(  6-C ,  7-O ) :   0.8783 B(  6-C ,  8-C ) :   0.9620 B(  6-C , 15-H ) :   0.9172
B(  7-O ,  8-C ) :   0.9146 B(  8-C , 16-H ) :   0.9447

MP2 TOTAL ENERGY:     -421.115207749 Eh
FINAL SINGLE POINT ENERGY      -421.115207749272

DIPOLE MOMENT
-------------
                                X             Y             Z
Electronic contribution:     -3.06029      -6.26629       0.50054
Nuclear contribution   :      3.52768       7.94946      -1.05454
                        -----------------------------------------
Total Dipole Moment    :      0.46739       1.68316      -0.55400
                        -----------------------------------------
Magnitude (a.u.)       :      1.83260
Magnitude (Debye)      :      4.65810

                             ****ORCA TERMINATED NORMALLY****
TOTAL RUN TIME: 0 days 0 hours 16 minutes 54 seconds 409 msec
