                         Program Version 3.0.3 - RELEASE   -
|  1> ! RI-MP2 RIJK def2-TZVP def2-TZVP/C def2-TZVP/JK TIGHTSCF
|  2> % maxcore 2000
|  3> % mp2 density relaxed end
|  4> *xyz 0 1
|  5>  C        2.2332685278    -0.2652497119     0.7893513311
|  6>  C        1.1085548180     0.1219016444    -0.1766998813
|  7>  C        1.3910428650    -0.2017211897    -1.6617560712
|  8>  O        2.6553620640     0.3495220207    -2.0551282186
|  9>  C        1.4290022333    -1.7179176283    -1.9681262818
| 10>  C        0.0371854577    -2.0706212292    -2.5421214708
| 11>  C       -0.4777537850    -0.7328342722    -3.0101884380
| 12>  C        0.2482997194     0.2879832607    -2.5546890804
| 13>  C        0.0425087518     1.7449624670    -2.8292964047
| 14>  H        2.3955912131    -1.3471548008     0.8114079483
| 15>  H        3.1781452902     0.2007745087     0.4977864480
| 16>  H        1.9932365450     0.0535087736     1.8083525786
| 17>  H        0.1730708977    -0.3727151356     0.1115555297
| 18>  H        0.9150442218     1.2003335211    -0.0856595740
| 19>  H        2.6856155725     1.2662710935    -1.7606379481
| 20>  H        2.1979415704    -1.8691496860    -2.7303955027
| 21>  H        1.7018677898    -2.3232356620    -1.1008273911
| 22>  H        0.0921482083    -2.8107379054    -3.3486876098
| 23>  H       -0.6220011134    -2.5044345733    -1.7767756217
| 24>  H       -1.3579332661    -0.6313068548    -3.6379671121
| 25>  H       -0.7987276804     1.9085998681    -3.5078853615
| 26>  H       -0.1539873970     2.3143106997    -1.9116247271
| 27>  H        0.9367869059     2.1824676317    -3.2903668409
| 28> *
| 29>
| 30>                          ****END OF INPUT****

CARTESIAN COORDINATES (ANGSTROEM)
---------------------------------
  C      2.233269   -0.265250    0.789351
  C      1.108555    0.121902   -0.176700
  C      1.391043   -0.201721   -1.661756
  O      2.655362    0.349522   -2.055128
  C      1.429002   -1.717918   -1.968126
  C      0.037185   -2.070621   -2.542121
  C     -0.477754   -0.732834   -3.010188
  C      0.248300    0.287983   -2.554689
  C      0.042509    1.744962   -2.829296
  H      2.395591   -1.347155    0.811408
  H      3.178145    0.200775    0.497786
  H      1.993237    0.053509    1.808353
  H      0.173071   -0.372715    0.111556
  H      0.915044    1.200334   -0.085660
  H      2.685616    1.266271   -1.760638
  H      2.197942   -1.869150   -2.730396
  H      1.701868   -2.323236   -1.100827
  H      0.092148   -2.810738   -3.348688
  H     -0.622001   -2.504435   -1.776776
  H     -1.357933   -0.631307   -3.637967
  H     -0.798728    1.908600   -3.507885
  H     -0.153987    2.314311   -1.911625
  H      0.936787    2.182468   -3.290367

 Total Charge           Charge          ....    0
 Multiplicity           Mult            ....    1
 Number of Electrons    NEL             ....   70
 Basis Dimension        Dim             ....  363

ORBITAL ENERGIES
----------------

  NO   OCC          E(Eh)            E(eV)
   0   2.0000     -20.549230      -559.1730
   1   2.0000     -11.282118      -307.0020
   2   2.0000     -11.223504      -305.4071
   3   2.0000     -11.223317      -305.4020
   4   2.0000     -11.222816      -305.3884
   5   2.0000     -11.220610      -305.3283
   6   2.0000     -11.216260      -305.2099
   7   2.0000     -11.212535      -305.1086
   8   2.0000     -11.211893      -305.0911
   9   2.0000      -1.356377       -36.9089
  10   2.0000      -1.131253       -30.7830
  11   2.0000      -1.035648       -28.1814
  12   2.0000      -1.011733       -27.5306
  13   2.0000      -0.935954       -25.4686
  14   2.0000      -0.904941       -24.6247
  15   2.0000      -0.844994       -22.9934
  16   2.0000      -0.761241       -20.7144
  17   2.0000      -0.724902       -19.7256
  18   2.0000      -0.659793       -17.9539
  19   2.0000      -0.647257       -17.6128
  20   2.0000      -0.628216       -17.0946
  21   2.0000      -0.606332       -16.4991
  22   2.0000      -0.584495       -15.9049
  23   2.0000      -0.570224       -15.5166
  24   2.0000      -0.554814       -15.0973
  25   2.0000      -0.540488       -14.7074
  26   2.0000      -0.520646       -14.1675
  27   2.0000      -0.513170       -13.9641
  28   2.0000      -0.500651       -13.6234
  29   2.0000      -0.491393       -13.3715
  30   2.0000      -0.484372       -13.1804
  31   2.0000      -0.475898       -12.9498
  32   2.0000      -0.448858       -12.2140
  33   2.0000      -0.422136       -11.4869
  34   2.0000      -0.337889        -9.1944
  35   0.0000       0.128279         3.4906
  36   0.0000       0.149553         4.0695
  37   0.0000       0.158433         4.3112
  38   0.0000       0.169617         4.6155
  39   0.0000       0.181810         4.9473

MULLIKEN ATOMIC CHARGES
-----------------------
   0 C :   -0.372544
   1 C :   -0.314412
   2 C :    0.367108
   3 O :   -0.480114
   4 C :   -0.278909
   5 C :   -0.191652
   6 C :   -0.180380
   7 C :   -0.008356
   8 C :   -0.496645
   9 H :    0.122281
  10 H :    0.123879
  11 H :    0.132549
  12 H :    0.124258
  13 H :    0.108330
  14 H :    0.312597
  15 H :    0.128220
  16 H :    0.118534
  17 H :    0.121276
  18 H :    0.112089
  19 H :    0.120036
  20 H :    0.142400
  21 H :    0.141078
  22 H :    0.148376
Sum of atomic charges:    0.0000000

LOEWDIN ATOMIC CHARGES
----------------------
   0 C :   -0.317082
   1 C :   -0.256821
   2 C :   -0.324310
   3 O :    0.005962
   4 C :   -0.192149
   5 C :   -0.241094
   6 C :   -0.134914
   7 C :   -0.160536
   8 C :   -0.279474
   9 H :    0.119686
  10 H :    0.121336
  11 H :    0.120778
  12 H :    0.146300
  13 H :    0.136866
  14 H :    0.171964
  15 H :    0.148400
  16 H :    0.133540
  17 H :    0.136248
  18 H :    0.137706
  19 H :    0.135893
  20 H :    0.132540
  21 H :    0.127835
  22 H :    0.131327

  Mayer bond orders larger than 0.1
B(  0-C ,  1-C ) :   0.9280 B(  0-C ,  9-H ) :   0.9408 B(  0-C , 10-H ) :   0.9316
B(  0-C , 11-H ) :   0.9407 B(  1-C ,  2-C ) :   0.9317 B(  1-C , 12-H ) :   0.9310
B(  1-C , 13-H ) :   0.9234 B(  2-C ,  3-O ) :   0.8878 B(  2-C ,  4-C ) :   0.8483
B(  2-C ,  7-C ) :   0.8816 B(  3-O , 14-H ) :   0.8431 B(  4-C ,  5-C ) :   0.9685
B(  4-C , 15-H ) :   0.9299 B(  4-C , 16-H ) :   0.9357 B(  5-C ,  6-C ) :   0.9373
B(  5-C , 17-H ) :   0.9315 B(  5-C , 18-H ) :   0.9110 B(  6-C ,  7-C ) :   1.7513
B(  6-C , 19-H ) :   0.9234 B(  7-C ,  8-C ) :   0.8570 B(  8-C , 20-H ) :   0.9471
B(  8-C , 21-H ) :   0.9280 B(  8-C , 22-H ) :   0.9449

MP2 TOTAL ENERGY:     -387.639041793 Eh
FINAL SINGLE POINT ENERGY      -387.639041793141

DIPOLE MOMENT
-------------
                                X             Y             Z
Electronic contribution:      0.36558      -0.38427      -3.95468
Nuclear contribution   :     -0.79976       0.69203       4.26036
                        -----------------------------------------
Total Dipole Moment    :     -0.43418       0.30776       0.30568
                        -----------------------------------------
Magnitude (a.u.)       :      0.61373
Magnitude (Debye)      :      1.55998

                             ****ORCA TERMINATED NORMALLY****
TOTAL RUN TIME: 0 days 0 hours 21 minutes 58 seconds 956 msec
