                         Program Version 3.0.3 - RELEASE   -
|  1> ! RI-MP2 RIJK def2-TZVP def2-TZVP/C def2-TZVP/JK TIGHTSCF
|  2> % maxcore 2000
|  3> % mp2 density relaxed end
|  4> *xyz 0 1
|  5>  O       -0.1440357570     1.4165266995    -0.0838953092
|  6>  C       -0.0145947881     0.0331170476    -0.0406807391
|  7>  C        1.0003285463    -0.6899222740    -0.9173575501
|  8>  C        0.4459649011    -2.1277832587    -0.8478189051
|  9>  C        0.7761979694    -2.7538778901     0.5056164901
| 10>  O        0.4194233135    -1.8695607487     1.5726884487
| 11>  C       -0.3860131340    -0.7910141138     1.1803295498
| 12>  C       -1.2328221290    -0.8629059734    -0.0749315459
| 13>  O       -0.9829514714    -1.9729964529    -0.9038388002
| 14>  H        0.5518484615     1.8011554935     0.4610637190
| 15>  H        0.9653720925    -0.2878602637    -1.9341429710
| 16>  H        2.0272183564    -0.6330176796    -0.5425541434
| 17>  H        0.7495418822    -2.7765445194    -1.6712310162
| 18>  H        0.2206815843    -3.6951759890     0.6078525576
| 19>  H        1.8489776926    -2.9678785305     0.5938493548
| 20>  H       -0.7952089927    -0.2724004075     2.0408363416
| 21>  H       -2.2542891776    -0.5052500894    -0.1107597614
| 22> *
| 23>
| 24>                          ****END OF INPUT****

CARTESIAN COORDINATES (ANGSTROEM)
---------------------------------
  O     -0.144036    1.416527   -0.083895
  C     -0.014595    0.033117   -0.040681
  C      1.000329   -0.689922   -0.917358
  C      0.445965   -2.127783   -0.847819
  C      0.776198   -2.753878    0.505616
  O      0.419423   -1.869561    1.572688
  C     -0.386013   -0.791014    1.180330
  C     -1.232822   -0.862906   -0.074932
  O     -0.982951   -1.972996   -0.903839
  H      0.551848    1.801155    0.461064
  H      0.965372   -0.287860   -1.934143
  H      2.027218   -0.633018   -0.542554
  H      0.749542   -2.776545   -1.671231
  H      0.220682   -3.695176    0.607853
  H      1.848978   -2.967879    0.593849
  H     -0.795209   -0.272400    2.040836
  H     -2.254289   -0.505250   -0.110760

 Total Charge           Charge          ....    0
 Multiplicity           Mult            ....    1
 Number of Electrons    NEL             ....   68
 Basis Dimension        Dim             ....  327

ORBITAL ENERGIES
----------------

  NO   OCC          E(Eh)            E(eV)
   0   2.0000     -20.575835      -559.8969
   1   2.0000     -20.566822      -559.6517
   2   2.0000     -20.566565      -559.6447
   3   2.0000     -11.294036      -307.3263
   4   2.0000     -11.289435      -307.2011
   5   2.0000     -11.287903      -307.1595
   6   2.0000     -11.283506      -307.0398
   7   2.0000     -11.282606      -307.0153
   8   2.0000     -11.237717      -305.7938
   9   2.0000      -1.420136       -38.6439
  10   2.0000      -1.380482       -37.5648
  11   2.0000      -1.366959       -37.1968
  12   2.0000      -1.121316       -30.5126
  13   2.0000      -1.058524       -28.8039
  14   2.0000      -0.937752       -25.5175
  15   2.0000      -0.878420       -23.9030
  16   2.0000      -0.793972       -21.6051
  17   2.0000      -0.752368       -20.4730
  18   2.0000      -0.746678       -20.3181
  19   2.0000      -0.687408       -18.7053
  20   2.0000      -0.673631       -18.3304
  21   2.0000      -0.644497       -17.5377
  22   2.0000      -0.632533       -17.2121
  23   2.0000      -0.600086       -16.3292
  24   2.0000      -0.580987       -15.8095
  25   2.0000      -0.566362       -15.4115
  26   2.0000      -0.563540       -15.3347
  27   2.0000      -0.548223       -14.9179
  28   2.0000      -0.522990       -14.2313
  29   2.0000      -0.502212       -13.6659
  30   2.0000      -0.475159       -12.9297
  31   2.0000      -0.461363       -12.5543
  32   2.0000      -0.379074       -10.3151
  33   2.0000      -0.367079        -9.9887
  34   0.0000       0.132347         3.6014
  35   0.0000       0.146772         3.9939
  36   0.0000       0.175300         4.7702
  37   0.0000       0.182644         4.9700
  38   0.0000       0.186778         5.0825

MULLIKEN ATOMIC CHARGES
-----------------------
   0 O :   -0.449572
   1 C :    0.106685
   2 C :   -0.237524
   3 C :    0.080323
   4 C :   -0.059616
   5 O :   -0.309443
   6 C :   -0.015787
   7 C :   -0.000776
   8 O :   -0.312147
   9 H :    0.328238
  10 H :    0.129337
  11 H :    0.121596
  12 H :    0.132804
  13 H :    0.107465
  14 H :    0.105506
  15 H :    0.132970
  16 H :    0.139942
Sum of atomic charges:    0.0000000

LOEWDIN ATOMIC CHARGES
----------------------
   0 O :    0.028926
   1 C :   -0.344449
   2 C :   -0.191572
   3 C :   -0.290778
   4 C :   -0.275006
   5 O :    0.180674
   6 C :   -0.253332
   7 C :   -0.233439
   8 O :    0.203747
   9 H :    0.185442
  10 H :    0.147888
  11 H :    0.144777
  12 H :    0.147320
  13 H :    0.130103
  14 H :    0.128419
  15 H :    0.147733
  16 H :    0.143547

  Mayer bond orders larger than 0.1
B(  0-O ,  1-C ) :   1.0040 B(  0-O ,  9-H ) :   0.8364 B(  1-C ,  2-C ) :   0.9610
B(  1-C ,  6-C ) :   0.8263 B(  1-C ,  7-C ) :   0.8527 B(  2-C ,  3-C ) :   0.9151
B(  2-C , 10-H ) :   0.9114 B(  2-C , 11-H ) :   0.9130 B(  3-C ,  4-C ) :   0.9427
B(  3-C ,  8-O ) :   0.8908 B(  3-C , 12-H ) :   0.9089 B(  4-C ,  5-O ) :   0.9307
B(  4-C , 13-H ) :   0.9271 B(  4-C , 14-H ) :   0.9148 B(  5-O ,  6-C ) :   0.9529
B(  6-C ,  7-C ) :   0.8683 B(  6-C , 15-H ) :   0.9308 B(  7-C ,  8-O ) :   0.9758
B(  7-C , 16-H ) :   0.9115

MP2 TOTAL ENERGY:     -458.207588110 Eh
FINAL SINGLE POINT ENERGY      -458.207588110260

DIPOLE MOMENT
-------------
                                X             Y             Z
Electronic contribution:     -2.39983       0.97370       0.91868
Nuclear contribution   :      3.15208      -0.86362      -0.89270
                        -----------------------------------------
Total Dipole Moment    :      0.75225       0.11008       0.02598
                        -----------------------------------------
Magnitude (a.u.)       :      0.76071
Magnitude (Debye)      :      1.93356

                             ****ORCA TERMINATED NORMALLY****
TOTAL RUN TIME: 0 days 0 hours 15 minutes 59 seconds 739 msec
