                         Program Version 3.0.3 - RELEASE   -
|  1> ! RI-MP2 RIJK def2-TZVP def2-TZVP/C def2-TZVP/JK TIGHTSCF
|  2> % maxcore 2000
|  3> % mp2 density relaxed end
|  4> *xyz 0 1
|  5>  C        0.0468332910     1.5892371885     0.0325545744
|  6>  O        1.4435270628     1.5293816320    -0.3299685819
|  7>  C        1.3540130259     0.1002181815    -0.5868072810
|  8>  C        2.4714435528    -0.7236225609     0.0653385626
|  9>  C        2.0352805231    -1.1853571903     1.4572146911
| 10>  C        1.3547461290    -0.0591376884     2.2577310485
| 11>  C        0.1076411801    -0.5633541481     1.4969715996
| 12>  O        0.7475403240    -1.8621373872     1.3218380843
| 13>  C       -0.0358091032     0.0531893655     0.1076139348
| 14>  H       -0.1155310300     2.1499761209     0.9607534433
| 15>  H       -0.5608968467     2.0347373086    -0.7659396743
| 16>  H        1.3124323092    -0.0788347867    -1.6686535891
| 17>  H        2.6862704133    -1.6078437165    -0.5443002197
| 18>  H        3.3835468247    -0.1169940063     0.1098121621
| 19>  H        2.7784566943    -1.8162847192     1.9514603799
| 20>  H        1.2933049001    -0.2914106884     3.3218664765
| 21>  H        1.6970118939     0.9631736670     2.0996976387
| 22>  H       -0.8410048650    -0.6366100881     2.0365063844
| 23>  H       -0.8434415993    -0.4301400539    -0.4451148442
| 24> *
| 25>
| 26>                          ****END OF INPUT****

CARTESIAN COORDINATES (ANGSTROEM)
---------------------------------
  C      0.046833    1.589237    0.032555
  O      1.443527    1.529382   -0.329969
  C      1.354013    0.100218   -0.586807
  C      2.471444   -0.723623    0.065339
  C      2.035281   -1.185357    1.457215
  C      1.354746   -0.059138    2.257731
  C      0.107641   -0.563354    1.496972
  O      0.747540   -1.862137    1.321838
  C     -0.035809    0.053189    0.107614
  H     -0.115531    2.149976    0.960753
  H     -0.560897    2.034737   -0.765940
  H      1.312432   -0.078835   -1.668654
  H      2.686270   -1.607844   -0.544300
  H      3.383547   -0.116994    0.109812
  H      2.778457   -1.816285    1.951460
  H      1.293305   -0.291411    3.321866
  H      1.697012    0.963174    2.099698
  H     -0.841005   -0.636610    2.036506
  H     -0.843442   -0.430140   -0.445115

 Total Charge           Charge          ....    0
 Multiplicity           Mult            ....    1
 Number of Electrons    NEL             ....   68
 Basis Dimension        Dim             ....  339

ORBITAL ENERGIES
----------------

  NO   OCC          E(Eh)            E(eV)
   0   2.0000     -20.549200      -559.1722
   1   2.0000     -20.545953      -559.0838
   2   2.0000     -11.287854      -307.1581
   3   2.0000     -11.285348      -307.0899
   4   2.0000     -11.284917      -307.0782
   5   2.0000     -11.281908      -306.9963
   6   2.0000     -11.236173      -305.7518
   7   2.0000     -11.226474      -305.4879
   8   2.0000     -11.225777      -305.4689
   9   2.0000      -1.387858       -37.7655
  10   2.0000      -1.371466       -37.3195
  11   2.0000      -1.065051       -28.9815
  12   2.0000      -1.032536       -28.0967
  13   2.0000      -0.989224       -26.9182
  14   2.0000      -0.921165       -25.0662
  15   2.0000      -0.839997       -22.8575
  16   2.0000      -0.797399       -21.6983
  17   2.0000      -0.720315       -19.6008
  18   2.0000      -0.708329       -19.2746
  19   2.0000      -0.667978       -18.1766
  20   2.0000      -0.646889       -17.6027
  21   2.0000      -0.629606       -17.1324
  22   2.0000      -0.610848       -16.6220
  23   2.0000      -0.591062       -16.0836
  24   2.0000      -0.564924       -15.3724
  25   2.0000      -0.543132       -14.7794
  26   2.0000      -0.528374       -14.3778
  27   2.0000      -0.510838       -13.9006
  28   2.0000      -0.484425       -13.1819
  29   2.0000      -0.476600       -12.9689
  30   2.0000      -0.451484       -12.2855
  31   2.0000      -0.437526       -11.9057
  32   2.0000      -0.424681       -11.5562
  33   2.0000      -0.391658       -10.6576
  34   0.0000       0.139839         3.8052
  35   0.0000       0.154782         4.2118
  36   0.0000       0.166258         4.5241
  37   0.0000       0.172871         4.7041
  38   0.0000       0.184365         5.0168

MULLIKEN ATOMIC CHARGES
-----------------------
   0 C :   -0.060993
   1 O :   -0.340279
   2 C :    0.072430
   3 C :   -0.231380
   4 C :    0.069716
   5 C :   -0.289303
   6 C :    0.086993
   7 O :   -0.344980
   8 C :   -0.134228
   9 H :    0.107612
  10 H :    0.106073
  11 H :    0.094981
  12 H :    0.117807
  13 H :    0.118412
  14 H :    0.115623
  15 H :    0.123362
  16 H :    0.148505
  17 H :    0.115944
  18 H :    0.123706
Sum of atomic charges:   -0.0000000

LOEWDIN ATOMIC CHARGES
----------------------
   0 C :   -0.256312
   1 O :    0.126171
   2 C :   -0.234059
   3 C :   -0.226575
   4 C :   -0.265892
   5 C :   -0.200641
   6 C :   -0.250960
   7 O :    0.151843
   8 C :   -0.201247
   9 H :    0.119169
  10 H :    0.119996
  11 H :    0.135361
  12 H :    0.145898
  13 H :    0.149694
  14 H :    0.132471
  15 H :    0.137162
  16 H :    0.137263
  17 H :    0.134035
  18 H :    0.146624

  Mayer bond orders larger than 0.1
B(  0-C ,  1-O ) :   0.9158 B(  0-C ,  8-C ) :   0.9370 B(  0-C ,  9-H ) :   0.9137
B(  0-C , 10-H ) :   0.9156 B(  1-O ,  2-C ) :   0.9515 B(  2-C ,  3-C ) :   0.9249
B(  2-C ,  8-C ) :   0.9593 B(  2-C , 11-H ) :   0.9179 B(  3-C ,  4-C ) :   0.9640
B(  3-C , 12-H ) :   0.9160 B(  3-C , 13-H ) :   0.8970 B(  4-C ,  5-C ) :   0.9411
B(  4-C ,  7-O ) :   0.9171 B(  4-C , 14-H ) :   0.9249 B(  5-C ,  6-C ) :   0.9397
B(  5-C , 15-H ) :   0.9244 B(  5-C , 16-H ) :   0.9229 B(  6-C ,  7-O ) :   0.9118
B(  6-C ,  8-C ) :   0.9357 B(  6-C , 17-H ) :   0.9238 B(  8-C , 18-H ) :   0.9129

MP2 TOTAL ENERGY:     -422.296434946 Eh
FINAL SINGLE POINT ENERGY      -422.296434946431

DIPOLE MOMENT
-------------
                                X             Y             Z
Electronic contribution:     -0.37726      -1.07090      -0.45706
Nuclear contribution   :      0.15725       1.24556       0.59166
                        -----------------------------------------
Total Dipole Moment    :     -0.22001       0.17467       0.13460
                        -----------------------------------------
Magnitude (a.u.)       :      0.31150
Magnitude (Debye)      :      0.79176

                             ****ORCA TERMINATED NORMALLY****
TOTAL RUN TIME: 0 days 0 hours 18 minutes 36 seconds 24 msec
