                         Program Version 3.0.3 - RELEASE   -
|  1> ! RI-MP2 RIJK def2-TZVP def2-TZVP/C def2-TZVP/JK TIGHTSCF
|  2> % maxcore 2000
|  3> % mp2 density relaxed end
|  4> *xyz 0 1
|  5>  C       -0.0565587154     1.5539796503    -0.0273539873
|  6>  C        0.0063325456     0.0322153688     0.0438609273
|  7>  O        0.7174166983    -0.5002510879    -1.0947021266
|  8>  C        2.0085434981    -0.8564442919    -0.6487943850
|  9>  C        2.2678490251    -0.4600129096     0.7630505098
| 10>  C        0.7898393326    -0.5189851620     1.2412445894
| 11>  C        0.8572712701    -2.0766498293     1.1585079637
| 12>  C        2.1752695592    -1.9528906376     0.3884633480
| 13>  C        3.2468387092    -3.0012466609     0.3150055720
| 14>  H        0.9454635271     1.9887956575     0.0488182417
| 15>  H       -0.4926252752     1.8688627033    -0.9794563656
| 16>  H       -0.6717372436     1.9568353621     0.7847188362
| 17>  H       -1.0064525828    -0.3879785893     0.0092686724
| 18>  H        2.7694273017    -0.7584894438    -1.4148761636
| 19>  H        3.0828360278     0.1463406223     1.1369054503
| 20>  H        0.5244311568    -0.0817679384     2.2029086217
| 21>  H        1.0171828910    -2.5250252354     2.1433255216
| 22>  H        0.0230531949    -2.5850286589     0.6608109442
| 23>  H        2.9016520537    -3.8784620390    -0.2455882190
| 24>  H        4.1440753716    -2.6214320975    -0.1856345892
| 25>  H        3.5433851042    -3.3412129030     1.3144464480
| 26> *
| 27>
| 28>                          ****END OF INPUT****

CARTESIAN COORDINATES (ANGSTROEM)
---------------------------------
  C     -0.056559    1.553980   -0.027354
  C      0.006333    0.032215    0.043861
  O      0.717417   -0.500251   -1.094702
  C      2.008543   -0.856444   -0.648794
  C      2.267849   -0.460013    0.763051
  C      0.789839   -0.518985    1.241245
  C      0.857271   -2.076650    1.158508
  C      2.175270   -1.952891    0.388463
  C      3.246839   -3.001247    0.315006
  H      0.945464    1.988796    0.048818
  H     -0.492625    1.868863   -0.979456
  H     -0.671737    1.956835    0.784719
  H     -1.006453   -0.387979    0.009269
  H      2.769427   -0.758489   -1.414876
  H      3.082836    0.146341    1.136905
  H      0.524431   -0.081768    2.202909
  H      1.017183   -2.525025    2.143326
  H      0.023053   -2.585029    0.660811
  H      2.901652   -3.878462   -0.245588
  H      4.144075   -2.621432   -0.185635
  H      3.543385   -3.341213    1.314446

 Total Charge           Charge          ....    0
 Multiplicity           Mult            ....    1
 Number of Electrons    NEL             ....   68
 Basis Dimension        Dim             ....  351

ORBITAL ENERGIES
----------------

  NO   OCC          E(Eh)            E(eV)
   0   2.0000     -20.545215      -559.0637
   1   2.0000     -11.274051      -306.7825
   2   2.0000     -11.273561      -306.7692
   3   2.0000     -11.236520      -305.7613
   4   2.0000     -11.233885      -305.6896
   5   2.0000     -11.225680      -305.4663
   6   2.0000     -11.223369      -305.4034
   7   2.0000     -11.219706      -305.3037
   8   2.0000     -11.210627      -305.0567
   9   2.0000      -1.376007       -37.4430
  10   2.0000      -1.177999       -32.0550
  11   2.0000      -1.045169       -28.4405
  12   2.0000      -0.978921       -26.6378
  13   2.0000      -0.959238       -26.1022
  14   2.0000      -0.878995       -23.9187
  15   2.0000      -0.801820       -21.8186
  16   2.0000      -0.784369       -21.3438
  17   2.0000      -0.718738       -19.5578
  18   2.0000      -0.684919       -18.6376
  19   2.0000      -0.635451       -17.2915
  20   2.0000      -0.619748       -16.8642
  21   2.0000      -0.603281       -16.4161
  22   2.0000      -0.572457       -15.5774
  23   2.0000      -0.557366       -15.1667
  24   2.0000      -0.548356       -14.9215
  25   2.0000      -0.543077       -14.7779
  26   2.0000      -0.535624       -14.5751
  27   2.0000      -0.519682       -14.1413
  28   2.0000      -0.486929       -13.2500
  29   2.0000      -0.474738       -12.9183
  30   2.0000      -0.455162       -12.3856
  31   2.0000      -0.434839       -11.8326
  32   2.0000      -0.375544       -10.2191
  33   2.0000      -0.360982        -9.8228
  34   0.0000       0.139170         3.7870
  35   0.0000       0.148015         4.0277
  36   0.0000       0.168536         4.5861
  37   0.0000       0.177784         4.8377
  38   0.0000       0.188241         5.1223

MULLIKEN ATOMIC CHARGES
-----------------------
   0 C :   -0.428666
   1 C :    0.116006
   2 O :   -0.326058
   3 C :    0.028706
   4 C :   -0.238773
   5 C :   -0.065301
   6 C :   -0.183216
   7 C :    0.021577
   8 C :   -0.422984
   9 H :    0.134248
  10 H :    0.140658
  11 H :    0.119790
  12 H :    0.095506
  13 H :    0.122407
  14 H :    0.141889
  15 H :    0.125527
  16 H :    0.113330
  17 H :    0.107877
  18 H :    0.139005
  19 H :    0.128864
  20 H :    0.129610
Sum of atomic charges:   -0.0000000

LOEWDIN ATOMIC CHARGES
----------------------
   0 C :   -0.292737
   1 C :   -0.299886
   2 O :    0.190467
   3 C :   -0.242925
   4 C :   -0.130733
   5 C :   -0.172844
   6 C :   -0.166049
   7 C :   -0.207850
   8 C :   -0.276465
   9 H :    0.127079
  10 H :    0.127145
  11 H :    0.124243
  12 H :    0.142016
  13 H :    0.144926
  14 H :    0.133476
  15 H :    0.144603
  16 H :    0.138414
  17 H :    0.130035
  18 H :    0.130711
  19 H :    0.129684
  20 H :    0.126692

  Mayer bond orders larger than 0.1
B(  0-C ,  1-C ) :   0.8982 B(  0-C ,  9-H ) :   0.9409 B(  0-C , 10-H ) :   0.9405
B(  0-C , 11-H ) :   0.9303 B(  1-C ,  2-O ) :   0.9051 B(  1-C ,  5-C ) :   0.9219
B(  1-C , 12-H ) :   0.9108 B(  2-O ,  3-C ) :   0.9813 B(  3-C ,  4-C ) :   0.8982
B(  3-C ,  7-C ) :   0.8516 B(  3-C , 13-H ) :   0.9464 B(  4-C ,  5-C ) :   0.9148
B(  4-C ,  7-C ) :   0.8065 B(  4-C , 14-H ) :   0.8980 B(  5-C ,  6-C ) :   0.9350
B(  5-C , 15-H ) :   0.9093 B(  6-C ,  7-C ) :   0.9498 B(  6-C , 16-H ) :   0.9242
B(  6-C , 17-H ) :   0.9014 B(  7-C ,  8-C ) :   0.8849 B(  8-C , 18-H ) :   0.9397
B(  8-C , 19-H ) :   0.9346 B(  8-C , 20-H ) :   0.9406

MP2 TOTAL ENERGY:     -386.395732222 Eh
FINAL SINGLE POINT ENERGY      -386.395732221802

DIPOLE MOMENT
-------------
                                X             Y             Z
Electronic contribution:     -0.63171       0.02460      -2.07879
Nuclear contribution   :      0.86090       0.00489       2.68370
                        -----------------------------------------
Total Dipole Moment    :      0.22919       0.02950       0.60491
                        -----------------------------------------
Magnitude (a.u.)       :      0.64755
Magnitude (Debye)      :      1.64593

                             ****ORCA TERMINATED NORMALLY****
TOTAL RUN TIME: 0 days 0 hours 19 minutes 27 seconds 502 msec
