                         Program Version 3.0.3 - RELEASE   -
|  1> ! RI-MP2 RIJK def2-TZVP def2-TZVP/C def2-TZVP/JK TIGHTSCF
|  2> % maxcore 2000
|  3> % mp2 density relaxed end
|  4> *xyz 0 1
|  5>  C       -0.1691299156     1.5018081477    -0.0312511360
|  6>  C        0.0573886329    -0.0073860489     0.0477455370
|  7>  C        1.0696305624    -0.5706461619    -1.0294864076
|  8>  C        2.1727937381    -1.1787061153    -0.1354441651
|  9>  C        1.4862967294    -1.8840913581     1.0340273255
| 10>  C        2.3321110858    -1.1699181393     2.1128976742
| 11>  C        1.1124358166    -0.4723246829     2.7662246384
| 12>  C        0.8568945818    -0.4701434730     1.2502757426
| 13>  N        2.3494880754    -0.1337382341     0.9660644633
| 14>  H        0.7808068516     2.0339847448     0.0753869435
| 15>  H       -0.6142103628     1.7824452479    -0.9913932468
| 16>  H       -0.8428523116     1.8441240922     0.7614877079
| 17>  H       -0.9012287194    -0.5341332773    -0.0106722842
| 18>  H        0.6105460037    -1.3179931062    -1.6835921979
| 19>  H        1.4665415860     0.2320543435    -1.6585947582
| 20>  H        3.0730301523    -1.5527520795    -0.6291338301
| 21>  H        0.9769236829    -2.8529636834     1.0890432570
| 22>  H        3.2560944535    -1.4975967864     2.5914525273
| 23>  H        0.4530194311    -1.0933863350     3.3775123539
| 24>  H        1.3046115555     0.4985290150     3.2305831054
| 25> *
| 26>
| 27>                          ****END OF INPUT****

CARTESIAN COORDINATES (ANGSTROEM)
---------------------------------
  C     -0.169130    1.501808   -0.031251
  C      0.057389   -0.007386    0.047746
  C      1.069631   -0.570646   -1.029486
  C      2.172794   -1.178706   -0.135444
  C      1.486297   -1.884091    1.034027
  C      2.332111   -1.169918    2.112898
  C      1.112436   -0.472325    2.766225
  C      0.856895   -0.470143    1.250276
  N      2.349488   -0.133738    0.966064
  H      0.780807    2.033985    0.075387
  H     -0.614210    1.782445   -0.991393
  H     -0.842852    1.844124    0.761488
  H     -0.901229   -0.534133   -0.010672
  H      0.610546   -1.317993   -1.683592
  H      1.466542    0.232054   -1.658595
  H      3.073030   -1.552752   -0.629134
  H      0.976924   -2.852964    1.089043
  H      3.256094   -1.497597    2.591453
  H      0.453019   -1.093386    3.377512
  H      1.304612    0.498529    3.230583

 Total Charge           Charge          ....    0
 Multiplicity           Mult            ....    1
 Number of Electrons    NEL             ....   66
 Basis Dimension        Dim             ....  345

ORBITAL ENERGIES
----------------

  NO   OCC          E(Eh)            E(eV)
   0   2.0000     -15.550953      -423.1629
   1   2.0000     -11.271467      -306.7122
   2   2.0000     -11.267562      -306.6059
   3   2.0000     -11.254415      -306.2482
   4   2.0000     -11.234730      -305.7125
   5   2.0000     -11.234688      -305.7114
   6   2.0000     -11.234060      -305.6943
   7   2.0000     -11.222046      -305.3674
   8   2.0000     -11.209635      -305.0297
   9   2.0000      -1.322529       -35.9878
  10   2.0000      -1.081435       -29.4273
  11   2.0000      -1.025561       -27.9069
  12   2.0000      -0.949632       -25.8408
  13   2.0000      -0.907581       -24.6965
  14   2.0000      -0.881433       -23.9850
  15   2.0000      -0.821543       -22.3553
  16   2.0000      -0.761124       -20.7112
  17   2.0000      -0.675694       -18.3866
  18   2.0000      -0.663389       -18.0517
  19   2.0000      -0.641347       -17.4519
  20   2.0000      -0.618519       -16.8308
  21   2.0000      -0.591335       -16.0910
  22   2.0000      -0.568703       -15.4752
  23   2.0000      -0.546275       -14.8649
  24   2.0000      -0.536164       -14.5898
  25   2.0000      -0.504028       -13.7153
  26   2.0000      -0.470124       -12.7927
  27   2.0000      -0.466227       -12.6867
  28   2.0000      -0.446717       -12.1558
  29   2.0000      -0.434262       -11.8169
  30   2.0000      -0.427343       -11.6286
  31   2.0000      -0.396990       -10.8026
  32   2.0000      -0.366337        -9.9685
  33   0.0000       0.140472         3.8224
  34   0.0000       0.155209         4.2235
  35   0.0000       0.166016         4.5175
  36   0.0000       0.171932         4.6785
  37   0.0000       0.189696         5.1619

MULLIKEN ATOMIC CHARGES
-----------------------
   0 C :   -0.450355
   1 C :   -0.006113
   2 C :   -0.259158
   3 C :   -0.033726
   4 C :   -0.076490
   5 C :   -0.106010
   6 C :   -0.161819
   7 C :   -0.030828
   8 N :   -0.208449
   9 H :    0.149608
  10 H :    0.134098
  11 H :    0.127391
  12 H :    0.096402
  13 H :    0.116850
  14 H :    0.120154
  15 H :    0.117652
  16 H :    0.105837
  17 H :    0.130087
  18 H :    0.118017
  19 H :    0.116851
Sum of atomic charges:   -0.0000000

LOEWDIN ATOMIC CHARGES
----------------------
   0 C :   -0.294120
   1 C :   -0.228225
   2 C :   -0.195220
   3 C :   -0.219869
   4 C :   -0.127300
   5 C :   -0.177814
   6 C :   -0.182737
   7 C :   -0.186172
   8 N :    0.171468
   9 H :    0.130356
  10 H :    0.123036
  11 H :    0.123261
  12 H :    0.149985
  13 H :    0.134935
  14 H :    0.140359
  15 H :    0.128845
  16 H :    0.123036
  17 H :    0.121613
  18 H :    0.131578
  19 H :    0.132983

  Mayer bond orders larger than 0.1
B(  0-C ,  1-C ) :   0.8736 B(  0-C ,  9-H ) :   0.9349 B(  0-C , 10-H ) :   0.9400
B(  0-C , 11-H ) :   0.9390 B(  1-C ,  2-C ) :   0.9770 B(  1-C ,  7-C ) :   0.9314
B(  1-C , 12-H ) :   0.9134 B(  2-C ,  3-C ) :   0.9646 B(  2-C , 13-H ) :   0.9187
B(  2-C , 14-H ) :   0.9102 B(  3-C ,  4-C ) :   0.9230 B(  3-C ,  8-N ) :   0.9345
B(  3-C , 15-H ) :   0.9035 B(  4-C ,  5-C ) :   0.8979 B(  4-C ,  7-C ) :   0.8776
B(  4-C , 16-H ) :   0.9203 B(  5-C ,  6-C ) :   0.9477 B(  5-C ,  8-N ) :   0.8928
B(  5-C , 17-H ) :   0.8909 B(  6-C ,  7-C ) :   0.8610 B(  6-C , 18-H ) :   0.9210
B(  6-C , 19-H ) :   0.9098 B(  7-C ,  8-N ) :   0.8845

MP2 TOTAL ENERGY:     -365.264587451 Eh
FINAL SINGLE POINT ENERGY      -365.264587451435

DIPOLE MOMENT
-------------
                                X             Y             Z
Electronic contribution:      3.33240      -2.93755       2.05312
Nuclear contribution   :     -3.76756       2.41512      -2.06005
                        -----------------------------------------
Total Dipole Moment    :     -0.43516      -0.52243      -0.00693
                        -----------------------------------------
Magnitude (a.u.)       :      0.67996
Magnitude (Debye)      :      1.72833

                             ****ORCA TERMINATED NORMALLY****
TOTAL RUN TIME: 0 days 0 hours 22 minutes 0 seconds 998 msec
