                         Program Version 3.0.3 - RELEASE   -
|  1> ! RI-MP2 RIJK def2-TZVP def2-TZVP/C def2-TZVP/JK TIGHTSCF
|  2> % maxcore 2000
|  3> % mp2 density relaxed end
|  4> *xyz 0 1
|  5>  C       -0.0552189622     1.5234429990     0.0534413569
|  6>  C        1.5055981677     1.5790496560    -0.0981407579
|  7>  C        1.4236971526     0.1713248764    -0.6956245888
|  8>  C        2.2240298201    -1.1239071182    -0.8279502642
|  9>  C        1.2322936426    -1.2870739622    -2.0116486751
| 10>  C       -0.1744440956    -1.7593733870    -1.5805368293
| 11>  O       -0.8416670705    -0.7715569153    -0.7919180816
| 12>  C        0.0592979695    -0.0218957034    -0.0132654764
| 13>  O        1.1657890955     0.1593363563    -2.1316584169
| 14>  H       -0.4994814905     1.9614612341     0.9482997852
| 15>  H       -0.5525036123     1.9081776542    -0.8378811477
| 16>  H        1.9306667847     2.3469717562    -0.7463717445
| 17>  H        2.0201390079     1.5906828031     0.8662440563
| 18>  H        3.2489198250    -0.9885919676    -1.1799115898
| 19>  H        2.1837175605    -1.8338725457     0.0024829886
| 20>  H        1.5720427099    -1.7815333952    -2.9248386788
| 21>  H       -0.8037963082    -1.9139156868    -2.4623492752
| 22>  H       -0.1033958968    -2.7169510201    -1.0392953189
| 23>  H        0.1692708901    -0.4523399938     0.9948876382
| 24> *
| 25>
| 26>                          ****END OF INPUT****

CARTESIAN COORDINATES (ANGSTROEM)
---------------------------------
  C     -0.055219    1.523443    0.053441
  C      1.505598    1.579050   -0.098141
  C      1.423697    0.171325   -0.695625
  C      2.224030   -1.123907   -0.827950
  C      1.232294   -1.287074   -2.011649
  C     -0.174444   -1.759373   -1.580537
  O     -0.841667   -0.771557   -0.791918
  C      0.059298   -0.021896   -0.013265
  O      1.165789    0.159336   -2.131658
  H     -0.499481    1.961461    0.948300
  H     -0.552504    1.908178   -0.837881
  H      1.930667    2.346972   -0.746372
  H      2.020139    1.590683    0.866244
  H      3.248920   -0.988592   -1.179912
  H      2.183718   -1.833873    0.002483
  H      1.572043   -1.781533   -2.924839
  H     -0.803796   -1.913916   -2.462349
  H     -0.103396   -2.716951   -1.039295
  H      0.169271   -0.452340    0.994888

 Total Charge           Charge          ....    0
 Multiplicity           Mult            ....    1
 Number of Electrons    NEL             ....   68
 Basis Dimension        Dim             ....  339

ORBITAL ENERGIES
----------------

  NO   OCC          E(Eh)            E(eV)
   0   2.0000     -20.553267      -559.2828
   1   2.0000     -20.549530      -559.1811
   2   2.0000     -11.292383      -307.2814
   3   2.0000     -11.288125      -307.1655
   4   2.0000     -11.279841      -306.9401
   5   2.0000     -11.274137      -306.7849
   6   2.0000     -11.235415      -305.7312
   7   2.0000     -11.231413      -305.6223
   8   2.0000     -11.224663      -305.4386
   9   2.0000      -1.407829       -38.3090
  10   2.0000      -1.352116       -36.7929
  11   2.0000      -1.123278       -30.5660
  12   2.0000      -1.030748       -28.0481
  13   2.0000      -0.961199       -26.1555
  14   2.0000      -0.900106       -24.4931
  15   2.0000      -0.854118       -23.2417
  16   2.0000      -0.803710       -21.8700
  17   2.0000      -0.730297       -19.8724
  18   2.0000      -0.689195       -18.7539
  19   2.0000      -0.676924       -18.4200
  20   2.0000      -0.665882       -18.1196
  21   2.0000      -0.619735       -16.8638
  22   2.0000      -0.582086       -15.8394
  23   2.0000      -0.576856       -15.6970
  24   2.0000      -0.570149       -15.5146
  25   2.0000      -0.554387       -15.0856
  26   2.0000      -0.517664       -14.0864
  27   2.0000      -0.504485       -13.7277
  28   2.0000      -0.495962       -13.4958
  29   2.0000      -0.482173       -13.1206
  30   2.0000      -0.469822       -12.7845
  31   2.0000      -0.431526       -11.7424
  32   2.0000      -0.413867       -11.2619
  33   2.0000      -0.381787       -10.3890
  34   0.0000       0.139359         3.7922
  35   0.0000       0.151236         4.1154
  36   0.0000       0.168422         4.5830
  37   0.0000       0.174834         4.7575
  38   0.0000       0.183602         4.9961

MULLIKEN ATOMIC CHARGES
-----------------------
   0 C :   -0.221175
   1 C :   -0.239150
   2 C :    0.130994
   3 C :   -0.204238
   4 C :    0.038153
   5 C :   -0.062146
   6 O :   -0.308740
   7 C :    0.035040
   8 O :   -0.323474
   9 H :    0.122989
  10 H :    0.130193
  11 H :    0.127911
  12 H :    0.124908
  13 H :    0.118293
  14 H :    0.122601
  15 H :    0.121423
  16 H :    0.123495
  17 H :    0.088277
  18 H :    0.074645
Sum of atomic charges:    0.0000000

LOEWDIN ATOMIC CHARGES
----------------------
   0 C :   -0.206447
   1 C :   -0.195530
   2 C :   -0.297295
   3 C :   -0.191239
   4 C :   -0.267846
   5 C :   -0.280585
   6 O :    0.176726
   7 C :   -0.268391
   8 O :    0.190084
   9 H :    0.123729
  10 H :    0.144895
  11 H :    0.135422
  12 H :    0.140783
  13 H :    0.137758
  14 H :    0.129899
  15 H :    0.135438
  16 H :    0.131770
  17 H :    0.122727
  18 H :    0.138102

  Mayer bond orders larger than 0.1
B(  0-C ,  1-C ) :   0.9621 B(  0-C ,  7-C ) :   0.8994 B(  0-C ,  9-H ) :   0.9278
B(  0-C , 10-H ) :   0.9101 B(  1-C ,  2-C ) :   0.8867 B(  1-C , 11-H ) :   0.9160
B(  1-C , 12-H ) :   0.9171 B(  2-C ,  3-C ) :   0.8861 B(  2-C ,  7-C ) :   0.9241
B(  2-C ,  8-O ) :   0.9547 B(  3-C ,  4-C ) :   0.9687 B(  3-C , 13-H ) :   0.9066
B(  3-C , 14-H ) :   0.9135 B(  4-C ,  5-C ) :   0.9345 B(  4-C ,  8-O ) :   0.9343
B(  4-C , 15-H ) :   0.9074 B(  5-C ,  6-O ) :   0.9448 B(  5-C , 16-H ) :   0.9239
B(  5-C , 17-H ) :   0.9108 B(  6-O ,  7-C ) :   1.0061 B(  7-C , 18-H ) :   0.9403

MP2 TOTAL ENERGY:     -422.281113501 Eh
FINAL SINGLE POINT ENERGY      -422.281113501020

DIPOLE MOMENT
-------------
                                X             Y             Z
Electronic contribution:     -1.33741      -0.36875      -2.16202
Nuclear contribution   :      1.95853      -0.07771       2.57734
                        -----------------------------------------
Total Dipole Moment    :      0.62113      -0.44646       0.41532
                        -----------------------------------------
Magnitude (a.u.)       :      0.87041
Magnitude (Debye)      :      2.21241

                             ****ORCA TERMINATED NORMALLY****
TOTAL RUN TIME: 0 days 0 hours 19 minutes 31 seconds 582 msec
