                         Program Version 3.0.3 - RELEASE   -
|  1> ! RI-MP2 RIJK def2-TZVP def2-TZVP/C def2-TZVP/JK TIGHTSCF
|  2> % maxcore 2000
|  3> % mp2 density relaxed end
|  4> *xyz 0 1
|  5>  C       -0.0053259630     1.4145560537    -0.0298626981
|  6>  N        0.1271650335    -0.0326798079    -0.0010778631
|  7>  C       -0.0957789942    -0.6655108046     1.2907812376
|  8>  C        0.0120088068    -0.7017095756    -1.1829043707
|  9>  N       -0.1621555228    -0.1059843653    -2.3154903130
| 10>  C       -0.1343581198    -1.0680302357    -3.4180606967
| 11>  C       -0.0238848743    -2.4757032608    -2.8125963519
| 12>  C        0.1622141746    -2.2098577759    -1.3268468768
| 13>  O        0.3919052452    -3.0282561794    -0.4696828786
| 14>  H        0.4731358411     1.8307438516     0.8614292578
| 15>  H        0.4739502405     1.8072189678    -0.9268100688
| 16>  H       -1.0581095473     1.7333079680    -0.0429592400
| 17>  H       -1.1247913306    -0.5032402941     1.6464127110
| 18>  H        0.0943781476    -1.7334892485     1.2229380889
| 19>  H        0.5855681627    -0.2280007970     2.0285758198
| 20>  H       -1.0371274146    -0.9413817215    -4.0264637117
| 21>  H        0.7126710342    -0.8388572936    -4.0769196004
| 22>  H       -0.9317878465    -3.0727724999    -2.9496856575
| 23>  H        0.8098783068    -3.0722166213    -3.1922779778
| 24> *
| 25>
| 26>                          ****END OF INPUT****

CARTESIAN COORDINATES (ANGSTROEM)
---------------------------------
  C     -0.005326    1.414556   -0.029863
  N      0.127165   -0.032680   -0.001078
  C     -0.095779   -0.665511    1.290781
  C      0.012009   -0.701710   -1.182904
  N     -0.162156   -0.105984   -2.315490
  C     -0.134358   -1.068030   -3.418061
  C     -0.023885   -2.475703   -2.812596
  C      0.162214   -2.209858   -1.326847
  O      0.391905   -3.028256   -0.469683
  H      0.473136    1.830744    0.861429
  H      0.473950    1.807219   -0.926810
  H     -1.058110    1.733308   -0.042959
  H     -1.124791   -0.503240    1.646413
  H      0.094378   -1.733489    1.222938
  H      0.585568   -0.228001    2.028576
  H     -1.037127   -0.941382   -4.026464
  H      0.712671   -0.838857   -4.076920
  H     -0.931788   -3.072772   -2.949686
  H      0.809878   -3.072217   -3.192278

 Total Charge           Charge          ....    0
 Multiplicity           Mult            ....    1
 Number of Electrons    NEL             ....   68
 Basis Dimension        Dim             ....  339

ORBITAL ENERGIES
----------------

  NO   OCC          E(Eh)            E(eV)
   0   2.0000     -20.564726      -559.5946
   1   2.0000     -15.580470      -423.9662
   2   2.0000     -15.548986      -423.1094
   3   2.0000     -11.349181      -308.8269
   4   2.0000     -11.316287      -307.9318
   5   2.0000     -11.259840      -306.3958
   6   2.0000     -11.252313      -306.1910
   7   2.0000     -11.250825      -306.1505
   8   2.0000     -11.242387      -305.9209
   9   2.0000      -1.408519       -38.3277
  10   2.0000      -1.292548       -35.1720
  11   2.0000      -1.211420       -32.9644
  12   2.0000      -1.032615       -28.0989
  13   2.0000      -0.971359       -26.4320
  14   2.0000      -0.962888       -26.2015
  15   2.0000      -0.881162       -23.9776
  16   2.0000      -0.811703       -22.0876
  17   2.0000      -0.730580       -19.8801
  18   2.0000      -0.685312       -18.6483
  19   2.0000      -0.663669       -18.0593
  20   2.0000      -0.638694       -17.3797
  21   2.0000      -0.632920       -17.2226
  22   2.0000      -0.625444       -17.0192
  23   2.0000      -0.585115       -15.9218
  24   2.0000      -0.563426       -15.3316
  25   2.0000      -0.558455       -15.1963
  26   2.0000      -0.549846       -14.9621
  27   2.0000      -0.541095       -14.7239
  28   2.0000      -0.529436       -14.4067
  29   2.0000      -0.519256       -14.1297
  30   2.0000      -0.463114       -12.6020
  31   2.0000      -0.451425       -12.2839
  32   2.0000      -0.395371       -10.7586
  33   2.0000      -0.335882        -9.1398
  34   0.0000       0.088437         2.4065
  35   0.0000       0.133355         3.6288
  36   0.0000       0.148758         4.0479
  37   0.0000       0.177243         4.8230
  38   0.0000       0.183500         4.9933

MULLIKEN ATOMIC CHARGES
-----------------------
   0 C :   -0.296182
   1 N :   -0.116497
   2 C :   -0.328774
   3 C :    0.088826
   4 N :   -0.275791
   5 C :   -0.117623
   6 C :   -0.220770
   7 C :    0.172165
   8 O :   -0.297978
   9 H :    0.131313
  10 H :    0.162958
  11 H :    0.128195
  12 H :    0.123684
  13 H :    0.186831
  14 H :    0.132135
  15 H :    0.121709
  16 H :    0.117674
  17 H :    0.142073
  18 H :    0.146052
Sum of atomic charges:   -0.0000000

LOEWDIN ATOMIC CHARGES
----------------------
   0 C :   -0.291922
   1 N :    0.144494
   2 C :   -0.293492
   3 C :   -0.310266
   4 N :    0.095453
   5 C :   -0.283611
   6 C :   -0.224776
   7 C :   -0.280800
   8 O :    0.150256
   9 H :    0.118715
  10 H :    0.129188
  11 H :    0.115204
  12 H :    0.112305
  13 H :    0.131784
  14 H :    0.118110
  15 H :    0.130796
  16 H :    0.131435
  17 H :    0.155457
  18 H :    0.151669

  Mayer bond orders larger than 0.1
B(  0-C ,  1-N ) :   0.8846 B(  0-C ,  9-H ) :   0.9296 B(  0-C , 10-H ) :   0.9261
B(  0-C , 11-H ) :   0.9305 B(  1-N ,  2-C ) :   0.8889 B(  1-N ,  3-C ) :   1.1868
B(  2-C , 12-H ) :   0.9252 B(  2-C , 13-H ) :   0.9193 B(  2-C , 14-H ) :   0.9341
B(  3-C ,  4-N ) :   1.6457 B(  3-C ,  7-C ) :   0.8637 B(  4-N ,  5-C ) :   0.9446
B(  5-C ,  6-C ) :   0.9459 B(  5-C , 15-H ) :   0.9315 B(  5-C , 16-H ) :   0.9177
B(  6-C ,  7-C ) :   0.9449 B(  6-C , 17-H ) :   0.9004 B(  6-C , 18-H ) :   0.9143
B(  7-C ,  8-O ) :   1.9249

MP2 TOTAL ENERGY:     -418.521815125 Eh
FINAL SINGLE POINT ENERGY      -418.521815124737

DIPOLE MOMENT
-------------
                                X             Y             Z
Electronic contribution:      1.05498      -4.27945      -1.52883
Nuclear contribution   :     -1.21410       4.49171       1.49886
                        -----------------------------------------
Total Dipole Moment    :     -0.15912       0.21226      -0.02998
                        -----------------------------------------
Magnitude (a.u.)       :      0.26697
Magnitude (Debye)      :      0.67858

                             ****ORCA TERMINATED NORMALLY****
TOTAL RUN TIME: 0 days 0 hours 20 minutes 10 seconds 499 msec
