                         Program Version 3.0.3 - RELEASE   -
|  1> ! RI-MP2 RIJK def2-TZVP def2-TZVP/C def2-TZVP/JK TIGHTSCF
|  2> % maxcore 2000
|  3> % mp2 density relaxed end
|  4> *xyz 0 1
|  5>  O        0.1352678106     0.2042170614    -1.0565630320
|  6>  C        0.0644134134     1.1635401376    -0.3536644377
|  7>  C       -1.0272690986     1.8259249233     0.4974771505
|  8>  N       -0.1288525354     3.0012295011     0.6674672857
|  9>  C        0.2230535578     3.4281929173     2.0287782050
| 10>  C        1.4899758636     2.6727955472     2.3899569852
| 11>  O        1.3502829236     1.2549386262     2.2471984176
| 12>  C        1.9872539282     1.9839570333     1.1863083589
| 13>  C        1.0381873179     2.2978360501     0.0466086729
| 14>  H       -1.9696427614     2.0449997051    -0.0164995694
| 15>  H       -1.2309208068     1.2625888300     1.4175089472
| 16>  H        0.4155591965     4.5088892350     2.0597114301
| 17>  H       -0.5996558090     3.2174004189     2.7202835544
| 18>  H        2.1431969192     3.0077666071     3.1925314674
| 19>  H        3.0332106926     1.7518549943     1.0093244133
| 20>  H        1.5406918379     2.8277474420    -0.7705800493
| 21> *
| 22>
| 23>                          ****END OF INPUT****

CARTESIAN COORDINATES (ANGSTROEM)
---------------------------------
  O      0.135268    0.204217   -1.056563
  C      0.064413    1.163540   -0.353664
  C     -1.027269    1.825925    0.497477
  N     -0.128853    3.001230    0.667467
  C      0.223054    3.428193    2.028778
  C      1.489976    2.672796    2.389957
  O      1.350283    1.254939    2.247198
  C      1.987254    1.983957    1.186308
  C      1.038187    2.297836    0.046609
  H     -1.969643    2.045000   -0.016500
  H     -1.230921    1.262589    1.417509
  H      0.415559    4.508889    2.059711
  H     -0.599656    3.217400    2.720284
  H      2.143197    3.007767    3.192531
  H      3.033211    1.751855    1.009324
  H      1.540692    2.827747   -0.770580

 Total Charge           Charge          ....    0
 Multiplicity           Mult            ....    1
 Number of Electrons    NEL             ....   66
 Basis Dimension        Dim             ....  321

ORBITAL ENERGIES
----------------

  NO   OCC          E(Eh)            E(eV)
   0   2.0000     -20.585898      -560.1708
   1   2.0000     -20.562861      -559.5439
   2   2.0000     -15.569707      -423.6733
   3   2.0000     -11.341763      -308.6251
   4   2.0000     -11.307226      -307.6853
   5   2.0000     -11.304062      -307.5992
   6   2.0000     -11.282296      -307.0069
   7   2.0000     -11.273679      -306.7724
   8   2.0000     -11.270532      -306.6868
   9   2.0000      -1.436258       -39.0826
  10   2.0000      -1.406985       -38.2860
  11   2.0000      -1.266933       -34.4750
  12   2.0000      -1.050064       -28.5737
  13   2.0000      -1.006831       -27.3973
  14   2.0000      -0.918798       -25.0018
  15   2.0000      -0.855607       -23.2822
  16   2.0000      -0.820117       -22.3165
  17   2.0000      -0.742772       -20.2119
  18   2.0000      -0.732753       -19.9392
  19   2.0000      -0.679022       -18.4771
  20   2.0000      -0.659516       -17.9463
  21   2.0000      -0.651304       -17.7229
  22   2.0000      -0.616390       -16.7728
  23   2.0000      -0.605651       -16.4806
  24   2.0000      -0.566242       -15.4082
  25   2.0000      -0.545859       -14.8536
  26   2.0000      -0.534741       -14.5510
  27   2.0000      -0.520461       -14.1625
  28   2.0000      -0.513865       -13.9830
  29   2.0000      -0.483540       -13.1578
  30   2.0000      -0.454686       -12.3726
  31   2.0000      -0.400422       -10.8960
  32   2.0000      -0.383300       -10.4301
  33   0.0000       0.130325         3.5463
  34   0.0000       0.141694         3.8557
  35   0.0000       0.161999         4.4082
  36   0.0000       0.166319         4.5258
  37   0.0000       0.180051         4.8994

MULLIKEN ATOMIC CHARGES
-----------------------
   0 O :   -0.234916
   1 C :    0.120591
   2 C :   -0.157610
   3 N :   -0.159604
   4 C :   -0.151491
   5 C :   -0.015943
   6 O :   -0.326118
   7 C :   -0.040774
   8 C :    0.027674
   9 H :    0.135373
  10 H :    0.130374
  11 H :    0.124940
  12 H :    0.132469
  13 H :    0.133253
  14 H :    0.146141
  15 H :    0.135641
Sum of atomic charges:    0.0000000

LOEWDIN ATOMIC CHARGES
----------------------
   0 O :    0.180496
   1 C :   -0.284233
   2 C :   -0.221796
   3 N :    0.122198
   4 C :   -0.263357
   5 C :   -0.257858
   6 O :    0.177108
   7 C :   -0.234171
   8 C :   -0.196516
   9 H :    0.131655
  10 H :    0.138518
  11 H :    0.138770
  12 H :    0.140422
  13 H :    0.137631
  14 H :    0.140551
  15 H :    0.150581

  Mayer bond orders larger than 0.1
B(  0-O ,  1-C ) :   2.0689 B(  1-C ,  2-C ) :   0.9371 B(  1-C ,  8-C ) :   0.8322
B(  2-C ,  3-N ) :   0.9463 B(  2-C ,  8-C ) :  -0.1021 B(  2-C ,  9-H ) :   0.8958
B(  2-C , 10-H ) :   0.8975 B(  3-N ,  4-C ) :   0.9385 B(  3-N ,  8-C ) :   0.9828
B(  4-C ,  5-C ) :   0.9227 B(  4-C , 11-H ) :   0.9178 B(  4-C , 12-H ) :   0.9260
B(  5-C ,  6-O ) :   0.9276 B(  5-C ,  7-C ) :   0.9327 B(  5-C , 13-H ) :   0.9234
B(  6-O ,  7-C ) :   0.8739 B(  7-C ,  8-C ) :   0.9472 B(  7-C , 14-H ) :   0.9139
B(  8-C , 15-H ) :   0.8758

MP2 TOTAL ENERGY:     -437.135158737 Eh
FINAL SINGLE POINT ENERGY      -437.135158736660

DIPOLE MOMENT
-------------
                                X             Y             Z
Electronic contribution:      0.88972      -3.51806      -2.68922
Nuclear contribution   :     -0.58125       4.59297       3.35669
                        -----------------------------------------
Total Dipole Moment    :      0.30847       1.07491       0.66746
                        -----------------------------------------
Magnitude (a.u.)       :      1.30234
Magnitude (Debye)      :      3.31029

                             ****ORCA TERMINATED NORMALLY****
TOTAL RUN TIME: 0 days 0 hours 17 minutes 29 seconds 101 msec
