                         Program Version 3.0.3 - RELEASE   -
|  1> ! RI-MP2 RIJK def2-TZVP def2-TZVP/C def2-TZVP/JK TIGHTSCF
|  2> % maxcore 2000
|  3> % mp2 density relaxed end
|  4> *xyz 0 1
|  5>  C       -0.0036584129     1.5358421890    -0.2508847464
|  6>  C        0.0170423159     0.0522640501     0.0173913390
|  7>  N        1.3018640657    -0.6382201755    -0.0711610523
|  8>  C        0.6303782977    -0.5779361529     1.2382041419
|  9>  C        1.2853299803     0.1698915444     2.3213590161
| 10>  N        1.0969377566    -0.0086024576     3.5998719403
| 11>  C        1.9230061790     0.9437107225     4.1386003091
| 12>  N        2.5829163191     1.6666624515     3.2768444369
| 13>  O        2.1579008875     1.1468886748     2.0454149611
| 14>  H        0.8960079934     2.0183681614     0.1331664880
| 15>  H       -0.0561753263     1.7184421130    -1.3292307114
| 16>  H       -0.8804933607     1.9990321389     0.2132581361
| 17>  H       -0.8576924949    -0.4866836673    -0.3469881648
| 18>  H        1.2038725492    -1.5692117840    -0.4664703238
| 19>  H        0.1378293407    -1.4662311251     1.6223600887
| 20>  H        2.0372066897     1.1005318768     5.2014798616
| 21> *
| 22>
| 23>                          ****END OF INPUT****

CARTESIAN COORDINATES (ANGSTROEM)
---------------------------------
  C     -0.003658    1.535842   -0.250885
  C      0.017042    0.052264    0.017391
  N      1.301864   -0.638220   -0.071161
  C      0.630378   -0.577936    1.238204
  C      1.285330    0.169892    2.321359
  N      1.096938   -0.008602    3.599872
  C      1.923006    0.943711    4.138600
  N      2.582916    1.666662    3.276844
  O      2.157901    1.146889    2.045415
  H      0.896008    2.018368    0.133166
  H     -0.056175    1.718442   -1.329231
  H     -0.880493    1.999032    0.213258
  H     -0.857692   -0.486684   -0.346988
  H      1.203873   -1.569212   -0.466470
  H      0.137829   -1.466231    1.622360
  H      2.037207    1.100532    5.201480

 Total Charge           Charge          ....    0
 Multiplicity           Mult            ....    1
 Number of Electrons    NEL             ....   66
 Basis Dimension        Dim             ....  321

ORBITAL ENERGIES
----------------

  NO   OCC          E(Eh)            E(eV)
   0   2.0000     -20.656225      -562.0845
   1   2.0000     -15.627697      -425.2513
   2   2.0000     -15.584360      -424.0720
   3   2.0000     -15.573759      -423.7835
   4   2.0000     -11.364006      -309.2303
   5   2.0000     -11.311577      -307.8037
   6   2.0000     -11.294193      -307.3306
   7   2.0000     -11.291115      -307.2469
   8   2.0000     -11.227625      -305.5192
   9   2.0000      -1.519905       -41.3587
  10   2.0000      -1.293517       -35.1984
  11   2.0000      -1.253484       -34.1090
  12   2.0000      -1.162547       -31.6345
  13   2.0000      -1.006628       -27.3917
  14   2.0000      -0.957805       -26.0632
  15   2.0000      -0.859739       -23.3947
  16   2.0000      -0.844567       -22.9818
  17   2.0000      -0.800559       -21.7843
  18   2.0000      -0.733540       -19.9606
  19   2.0000      -0.710153       -19.3242
  20   2.0000      -0.683397       -18.5962
  21   2.0000      -0.623740       -16.9728
  22   2.0000      -0.597231       -16.2515
  23   2.0000      -0.588667       -16.0184
  24   2.0000      -0.575351       -15.6561
  25   2.0000      -0.541375       -14.7316
  26   2.0000      -0.517907       -14.0930
  27   2.0000      -0.504299       -13.7227
  28   2.0000      -0.485801       -13.2193
  29   2.0000      -0.469869       -12.7858
  30   2.0000      -0.469611       -12.7788
  31   2.0000      -0.431110       -11.7311
  32   2.0000      -0.384892       -10.4734
  33   0.0000       0.113056         3.0764
  34   0.0000       0.122236         3.3262
  35   0.0000       0.156903         4.2695
  36   0.0000       0.175935         4.7874
  37   0.0000       0.178819         4.8659

MULLIKEN ATOMIC CHARGES
-----------------------
   0 C :   -0.410630
   1 C :    0.038386
   2 N :   -0.367964
   3 C :   -0.152395
   4 C :    0.272516
   5 N :   -0.292412
   6 C :    0.038556
   7 N :   -0.130839
   8 O :   -0.088639
   9 H :    0.165247
  10 H :    0.136594
  11 H :    0.130205
  12 H :    0.127637
  13 H :    0.228523
  14 H :    0.148921
  15 H :    0.156295
Sum of atomic charges:    0.0000000

LOEWDIN ATOMIC CHARGES
----------------------
   0 C :   -0.291365
   1 C :   -0.268516
   2 N :    0.025111
   3 C :   -0.224911
   4 C :   -0.350923
   5 N :    0.111407
   6 C :   -0.337966
   7 N :    0.032096
   8 O :    0.302913
   9 H :    0.134272
  10 H :    0.130300
  11 H :    0.129515
  12 H :    0.140344
  13 H :    0.171493
  14 H :    0.157553
  15 H :    0.138677

  Mayer bond orders larger than 0.1
B(  0-C ,  1-C ) :   0.9116 B(  0-C ,  9-H ) :   0.9336 B(  0-C , 10-H ) :   0.9327
B(  0-C , 11-H ) :   0.9332 B(  1-C ,  2-N ) :   0.8723 B(  1-C ,  3-C ) :   0.8712
B(  1-C , 12-H ) :   0.9214 B(  2-N ,  3-C ) :   0.9760 B(  2-N , 13-H ) :   0.8658
B(  3-C ,  4-C ) :   0.9195 B(  3-C , 14-H ) :   0.9355 B(  4-C ,  5-N ) :   1.6009
B(  4-C ,  8-O ) :   1.1962 B(  5-N ,  6-C ) :   1.2053 B(  6-C ,  7-N ) :   1.5919
B(  6-C , 15-H ) :   0.9270 B(  7-N ,  8-O ) :   0.8827

MP2 TOTAL ENERGY:     -433.317118022 Eh
FINAL SINGLE POINT ENERGY      -433.317118021905

DIPOLE MOMENT
-------------
                                X             Y             Z
Electronic contribution:      4.74870      -0.51122       6.52820
Nuclear contribution   :     -5.68537      -0.11028      -6.96319
                        -----------------------------------------
Total Dipole Moment    :     -0.93667      -0.62150      -0.43498
                        -----------------------------------------
Magnitude (a.u.)       :      1.20533
Magnitude (Debye)      :      3.06370

                             ****ORCA TERMINATED NORMALLY****
TOTAL RUN TIME: 0 days 0 hours 16 minutes 9 seconds 944 msec
