                         Program Version 3.0.3 - RELEASE   -
|  1> ! RI-MP2 RIJK def2-TZVP def2-TZVP/C def2-TZVP/JK TIGHTSCF
|  2> % maxcore 2000
|  3> % mp2 density relaxed end
|  4> *xyz 0 1
|  5>  C        0.0642442836     1.5695009671    -0.0175358638
|  6>  C        0.0175876059     0.0387935208    -0.0438001145
|  7>  C       -1.3927780129    -0.5450946324     0.0589835709
|  8>  C       -1.4354624753    -2.0913287502    -0.0125953827
|  9>  C       -2.6425405249    -2.4864251164     0.8507131703
| 10>  C       -2.8146940850    -1.3140672046     1.8224867605
| 11>  O       -3.5142448720    -1.2703329519     2.8099983777
| 12>  N       -2.0298155403    -0.2944607784     1.3460617891
| 13>  H        1.0881725619     1.9331244920    -0.1438955660
| 14>  H       -0.5433870508     1.9998884746    -0.8213094017
| 15>  H       -0.3050292407     1.9707480800     0.9326976499
| 16>  H        0.4618505784    -0.3232737922    -0.9797500493
| 17>  H        0.6241001228    -0.3699978864     0.7736870731
| 18>  H       -2.0034667653    -0.1198656777    -0.7554719036
| 19>  H       -1.4950147416    -2.4463694103    -1.0436608108
| 20>  H       -0.5139902873    -2.4915315030     0.4239957976
| 21>  H       -3.5637396823    -2.5662374492     0.2617180125
| 22>  H       -2.5240331247    -3.4247578709     1.3951773530
| 23>  H       -2.1273741594     0.6277054091     1.7409646178
| 24> *
| 25>
| 26>                          ****END OF INPUT****

CARTESIAN COORDINATES (ANGSTROEM)
---------------------------------
  C      0.064244    1.569501   -0.017536
  C      0.017588    0.038794   -0.043800
  C     -1.392778   -0.545095    0.058984
  C     -1.435462   -2.091329   -0.012595
  C     -2.642541   -2.486425    0.850713
  C     -2.814694   -1.314067    1.822487
  O     -3.514245   -1.270333    2.809998
  N     -2.029816   -0.294461    1.346062
  H      1.088173    1.933124   -0.143896
  H     -0.543387    1.999888   -0.821309
  H     -0.305029    1.970748    0.932698
  H      0.461851   -0.323274   -0.979750
  H      0.624100   -0.369998    0.773687
  H     -2.003467   -0.119866   -0.755472
  H     -1.495015   -2.446369   -1.043661
  H     -0.513990   -2.491532    0.423996
  H     -3.563740   -2.566237    0.261718
  H     -2.524033   -3.424758    1.395177
  H     -2.127374    0.627705    1.740965

 Total Charge           Charge          ....    0
 Multiplicity           Mult            ....    1
 Number of Electrons    NEL             ....   62
 Basis Dimension        Dim             ....  314

ORBITAL ENERGIES
----------------

  NO   OCC          E(Eh)            E(eV)
   0   2.0000     -20.510834      -558.1282
   1   2.0000     -15.576111      -423.8475
   2   2.0000     -11.341034      -308.6052
   3   2.0000     -11.278801      -306.9118
   4   2.0000     -11.240121      -305.8592
   5   2.0000     -11.238411      -305.8127
   6   2.0000     -11.235726      -305.7397
   7   2.0000     -11.228459      -305.5419
   8   2.0000      -1.375076       -37.4177
   9   2.0000      -1.247890       -33.9568
  10   2.0000      -1.068245       -29.0684
  11   2.0000      -1.050105       -28.5748
  12   2.0000      -0.955952       -26.0128
  13   2.0000      -0.854892       -23.2628
  14   2.0000      -0.810943       -22.0669
  15   2.0000      -0.787645       -21.4329
  16   2.0000      -0.700502       -19.0616
  17   2.0000      -0.658464       -17.9177
  18   2.0000      -0.625441       -17.0191
  19   2.0000      -0.605588       -16.4789
  20   2.0000      -0.582047       -15.8383
  21   2.0000      -0.576159       -15.6781
  22   2.0000      -0.570089       -15.5129
  23   2.0000      -0.555672       -15.1206
  24   2.0000      -0.548963       -14.9380
  25   2.0000      -0.511480       -13.9181
  26   2.0000      -0.498105       -13.5541
  27   2.0000      -0.478161       -13.0114
  28   2.0000      -0.473994       -12.8980
  29   2.0000      -0.409901       -11.1540
  30   2.0000      -0.386928       -10.5288
  31   0.0000       0.124679         3.3927
  32   0.0000       0.143323         3.9000
  33   0.0000       0.154462         4.2031
  34   0.0000       0.161434         4.3929
  35   0.0000       0.178652         4.8614

MULLIKEN ATOMIC CHARGES
-----------------------
   0 C :   -0.407112
   1 C :   -0.204768
   2 C :    0.051078
   3 C :   -0.254617
   4 C :   -0.185044
   5 C :    0.190239
   6 O :   -0.342931
   7 N :   -0.317691
   8 H :    0.141922
   9 H :    0.128930
  10 H :    0.121258
  11 H :    0.111965
  12 H :    0.116137
  13 H :    0.098968
  14 H :    0.128215
  15 H :    0.119604
  16 H :    0.130218
  17 H :    0.137428
  18 H :    0.236201
Sum of atomic charges:    0.0000000

LOEWDIN ATOMIC CHARGES
----------------------
   0 C :   -0.319433
   1 C :   -0.277628
   2 C :   -0.275167
   3 C :   -0.225106
   4 C :   -0.220088
   5 C :   -0.448392
   6 O :    0.080303
   7 N :    0.135825
   8 H :    0.124599
   9 H :    0.122376
  10 H :    0.118102
  11 H :    0.142635
  12 H :    0.139844
  13 H :    0.142819
  14 H :    0.135974
  15 H :    0.142915
  16 H :    0.151240
  17 H :    0.146184
  18 H :    0.182999

  Mayer bond orders larger than 0.1
B(  0-C ,  1-C ) :   0.9206 B(  0-C ,  8-H ) :   0.9407 B(  0-C ,  9-H ) :   0.9359
B(  0-C , 10-H ) :   0.9424 B(  1-C ,  2-C ) :   0.9108 B(  1-C , 11-H ) :   0.9308
B(  1-C , 12-H ) :   0.9264 B(  2-C ,  3-C ) :   0.9248 B(  2-C ,  7-N ) :   0.8242
B(  2-C , 13-H ) :   0.9282 B(  3-C ,  4-C ) :   0.9266 B(  3-C , 14-H ) :   0.9284
B(  3-C , 15-H ) :   0.9238 B(  4-C ,  5-C ) :   0.9130 B(  4-C , 16-H ) :   0.9125
B(  4-C , 17-H ) :   0.9232 B(  5-C ,  6-O ) :   2.0138 B(  5-C ,  7-N ) :   1.1596
B(  7-N , 18-H ) :   0.8645

MP2 TOTAL ENERGY:     -364.502305693 Eh
FINAL SINGLE POINT ENERGY      -364.502305692958

DIPOLE MOMENT
-------------
                                X             Y             Z
Electronic contribution:     -6.49844      -2.81917       5.86955
Nuclear contribution   :      7.45246       3.10470      -7.18994
                        -----------------------------------------
Total Dipole Moment    :      0.95402       0.28552      -1.32039
                        -----------------------------------------
Magnitude (a.u.)       :      1.65381
Magnitude (Debye)      :      4.20366

                             ****ORCA TERMINATED NORMALLY****
TOTAL RUN TIME: 0 days 0 hours 12 minutes 47 seconds 740 msec
