                         Program Version 3.0.3 - RELEASE   -
|  1> ! RI-MP2 RIJK def2-TZVP def2-TZVP/C def2-TZVP/JK TIGHTSCF
|  2> % maxcore 2000
|  3> % mp2 density relaxed end
|  4> *xyz 0 1
|  5>  C       -0.4456991519     1.1881637448     0.9372502729
|  6>  N        0.0617378479    -0.1504724048     1.1575047584
|  7>  C        1.1253290364    -0.6544832307     0.4687484759
|  8>  O        1.7389735752    -0.0200057065    -0.3716360158
|  9>  C        1.4918256010    -2.1074784460     0.7936086977
| 10>  C        1.1277116954    -2.6036523128     2.1780057353
| 11>  C       -0.2314360047    -3.2174591598     2.4749294091
| 12>  C        1.0110439050    -4.0735374143     2.5130376718
| 13>  C        1.2358604914    -5.1742663625     1.4988682297
| 14>  H        0.2036627564     1.6636149813     0.2011710456
| 15>  H       -1.4712656827     1.1719583088     0.5498599942
| 16>  H       -0.4327066085     1.7767580574     1.8615494018
| 17>  H       -0.3929742175    -0.7472661246     1.8284188016
| 18>  H        1.0169858589    -2.7259154416     0.0229056672
| 19>  H        2.5695748649    -2.1844279333     0.6203202159
| 20>  H        1.5422654168    -1.9926245955     2.9764528237
| 21>  H       -0.7324624546    -2.9744165053     3.4063949252
| 22>  H       -0.9050027639    -3.3652338836     1.6350442421
| 23>  H        1.3594052644    -4.3284986467     3.5107980599
| 24>  H        0.8270780438    -4.9200065065     0.5170082642
| 25>  H        2.3029345106    -5.3865962970     1.3698831517
| 26>  H        0.7496914956    -6.1005574808     1.8235485721
| 27> *
| 28>
| 29>                          ****END OF INPUT****

CARTESIAN COORDINATES (ANGSTROEM)
---------------------------------
  C     -0.445699    1.188164    0.937250
  N      0.061738   -0.150472    1.157505
  C      1.125329   -0.654483    0.468748
  O      1.738974   -0.020006   -0.371636
  C      1.491826   -2.107478    0.793609
  C      1.127712   -2.603652    2.178006
  C     -0.231436   -3.217459    2.474929
  C      1.011044   -4.073537    2.513038
  C      1.235860   -5.174266    1.498868
  H      0.203663    1.663615    0.201171
  H     -1.471266    1.171958    0.549860
  H     -0.432707    1.776758    1.861549
  H     -0.392974   -0.747266    1.828419
  H      1.016986   -2.725915    0.022906
  H      2.569575   -2.184428    0.620320
  H      1.542265   -1.992625    2.976453
  H     -0.732462   -2.974417    3.406395
  H     -0.905003   -3.365234    1.635044
  H      1.359405   -4.328499    3.510798
  H      0.827078   -4.920007    0.517008
  H      2.302935   -5.386596    1.369883
  H      0.749691   -6.100557    1.823549

 Total Charge           Charge          ....    0
 Multiplicity           Mult            ....    1
 Number of Electrons    NEL             ....   70
 Basis Dimension        Dim             ....  357

ORBITAL ENERGIES
----------------

  NO   OCC          E(Eh)            E(eV)
   0   2.0000     -20.504022      -557.9428
   1   2.0000     -15.575985      -423.8441
   2   2.0000     -11.339543      -308.5647
   3   2.0000     -11.253351      -306.2192
   4   2.0000     -11.245201      -305.9975
   5   2.0000     -11.243265      -305.9448
   6   2.0000     -11.238221      -305.8075
   7   2.0000     -11.235793      -305.7415
   8   2.0000     -11.225983      -305.4745
   9   2.0000      -1.370493       -37.2930
  10   2.0000      -1.222357       -33.2620
  11   2.0000      -1.162102       -31.6224
  12   2.0000      -1.019069       -27.7303
  13   2.0000      -0.968504       -26.3543
  14   2.0000      -0.930807       -25.3285
  15   2.0000      -0.821477       -22.3535
  16   2.0000      -0.790429       -21.5087
  17   2.0000      -0.762452       -20.7474
  18   2.0000      -0.703752       -19.1501
  19   2.0000      -0.666314       -18.1313
  20   2.0000      -0.642320       -17.4784
  21   2.0000      -0.625199       -17.0125
  22   2.0000      -0.605503       -16.4766
  23   2.0000      -0.582680       -15.8555
  24   2.0000      -0.575437       -15.6584
  25   2.0000      -0.561504       -15.2793
  26   2.0000      -0.550546       -14.9811
  27   2.0000      -0.540786       -14.7155
  28   2.0000      -0.522726       -14.2241
  29   2.0000      -0.510556       -13.8929
  30   2.0000      -0.487284       -13.2597
  31   2.0000      -0.435857       -11.8603
  32   2.0000      -0.416506       -11.3337
  33   2.0000      -0.396070       -10.7776
  34   2.0000      -0.383919       -10.4470
  35   0.0000       0.127477         3.4688
  36   0.0000       0.145411         3.9568
  37   0.0000       0.150642         4.0992
  38   0.0000       0.168443         4.5836
  39   0.0000       0.175053         4.7634

MULLIKEN ATOMIC CHARGES
-----------------------
   0 C :   -0.291882
   1 N :   -0.302415
   2 C :    0.226720
   3 O :   -0.379858
   4 C :   -0.186667
   5 C :   -0.172645
   6 C :   -0.344139
   7 C :   -0.038087
   8 C :   -0.398304
   9 H :    0.176935
  10 H :    0.131238
  11 H :    0.131388
  12 H :    0.248696
  13 H :    0.122076
  14 H :    0.143614
  15 H :    0.137623
  16 H :    0.140054
  17 H :    0.138510
  18 H :    0.121960
  19 H :    0.121638
  20 H :    0.135220
  21 H :    0.138325
Sum of atomic charges:    0.0000000

LOEWDIN ATOMIC CHARGES
----------------------
   0 C :   -0.314493
   1 N :    0.084276
   2 C :   -0.456233
   3 O :    0.068122
   4 C :   -0.211562
   5 C :   -0.222502
   6 C :   -0.227492
   7 C :   -0.233165
   8 C :   -0.293384
   9 H :    0.134567
  10 H :    0.113863
  11 H :    0.114038
  12 H :    0.187064
  13 H :    0.155221
  14 H :    0.157570
  15 H :    0.151497
  16 H :    0.129698
  17 H :    0.135637
  18 H :    0.149116
  19 H :    0.123777
  20 H :    0.127137
  21 H :    0.127248

  Mayer bond orders larger than 0.1
B(  0-C ,  1-N ) :   0.8592 B(  0-C ,  9-H ) :   0.9257 B(  0-C , 10-H ) :   0.9343
B(  0-C , 11-H ) :   0.9370 B(  1-N ,  2-C ) :   1.1745 B(  1-N , 12-H ) :   0.8668
B(  2-C ,  3-O ) :   1.9378 B(  2-C ,  4-C ) :   0.9322 B(  4-C ,  5-C ) :   0.8749
B(  4-C , 13-H ) :   0.9088 B(  4-C , 14-H ) :   0.9248 B(  5-C ,  6-C ) :   0.8974
B(  5-C ,  7-C ) :   0.8519 B(  5-C , 15-H ) :   0.9299 B(  6-C ,  7-C ) :   0.8811
B(  6-C , 16-H ) :   0.9265 B(  6-C , 17-H ) :   0.9242 B(  7-C ,  8-C ) :   0.9181
B(  7-C , 18-H ) :   0.9296 B(  8-C , 19-H ) :   0.9366 B(  8-C , 20-H ) :   0.9384
B(  8-C , 21-H ) :   0.9375

MP2 TOTAL ENERGY:     -403.677308173 Eh
FINAL SINGLE POINT ENERGY      -403.677308173033

DIPOLE MOMENT
-------------
                                X             Y             Z
Electronic contribution:      2.39200       5.27999      -2.50724
Nuclear contribution   :     -3.27652      -5.90345       3.57972
                        -----------------------------------------
Total Dipole Moment    :     -0.88452      -0.62346       1.07248
                        -----------------------------------------
Magnitude (a.u.)       :      1.52358
Magnitude (Debye)      :      3.87263

                             ****ORCA TERMINATED NORMALLY****
TOTAL RUN TIME: 0 days 0 hours 17 minutes 53 seconds 180 msec
