                         Program Version 3.0.3 - RELEASE   -
|  1> ! RI-MP2 RIJK def2-TZVP def2-TZVP/C def2-TZVP/JK TIGHTSCF
|  2> % maxcore 2000
|  3> % mp2 density relaxed end
|  4> *xyz 0 1
|  5>  C        0.0799981614     1.4509782594    -0.0133181385
|  6>  C        0.0441516912    -0.0040389144    -0.0228552899
|  7>  C        0.0241100572    -1.2073283463    -0.0345759284
|  8>  C       -0.0378078600    -2.6644370342    -0.0143221299
|  9>  C       -1.4695907325    -3.1968780321    -0.1218683357
| 10>  O        0.7511854296    -3.1454465513    -1.1348342211
| 11>  C        1.3379427442    -4.3533193974    -1.0077596531
| 12>  C        2.1335169660    -4.6642411703    -2.2506489583
| 13>  N        1.1947521189    -5.0642340384     0.0356660756
| 14>  H        0.6037092396     1.8358848873    -0.8952862799
| 15>  H       -0.9300804245     1.8751576495    -0.0174856237
| 16>  H        0.5986679158     1.8327892985     0.8729132769
| 17>  H        0.4215805498    -3.0536941160     0.8995392740
| 18>  H       -2.0721375303    -2.8083441748     0.7036931533
| 19>  H       -1.9222891326    -2.8772557738    -1.0639707193
| 20>  H       -1.4588916478    -4.2873214848    -0.0689714613
| 21>  H        2.8934905742    -3.8939281281    -2.4120438554
| 22>  H        2.6186245972    -5.6384621750    -2.1721166525
| 23>  H        1.4778658863    -4.6589295198    -3.1266019220
| 24>  H        1.7218979163    -5.9298986777    -0.0451879608
| 25> *
| 26>
| 27>                          ****END OF INPUT****

CARTESIAN COORDINATES (ANGSTROEM)
---------------------------------
  C      0.079998    1.450978   -0.013318
  C      0.044152   -0.004039   -0.022855
  C      0.024110   -1.207328   -0.034576
  C     -0.037808   -2.664437   -0.014322
  C     -1.469591   -3.196878   -0.121868
  O      0.751185   -3.145447   -1.134834
  C      1.337943   -4.353319   -1.007760
  C      2.133517   -4.664241   -2.250649
  N      1.194752   -5.064234    0.035666
  H      0.603709    1.835885   -0.895286
  H     -0.930080    1.875158   -0.017486
  H      0.598668    1.832789    0.872913
  H      0.421581   -3.053694    0.899539
  H     -2.072138   -2.808344    0.703693
  H     -1.922289   -2.877256   -1.063971
  H     -1.458892   -4.287321   -0.068971
  H      2.893491   -3.893928   -2.412044
  H      2.618625   -5.638462   -2.172117
  H      1.477866   -4.658930   -3.126602
  H      1.721898   -5.929899   -0.045188

 Total Charge           Charge          ....    0
 Multiplicity           Mult            ....    1
 Number of Electrons    NEL             ....   68
 Basis Dimension        Dim             ....  345

ORBITAL ENERGIES
----------------

  NO   OCC          E(Eh)            E(eV)
   0   2.0000     -20.585397      -560.1571
   1   2.0000     -15.530226      -422.5989
   2   2.0000     -11.339435      -308.5617
   3   2.0000     -11.304946      -307.6232
   4   2.0000     -11.245960      -306.0181
   5   2.0000     -11.238478      -305.8145
   6   2.0000     -11.225039      -305.4488
   7   2.0000     -11.215461      -305.1882
   8   2.0000     -11.214255      -305.1554
   9   2.0000      -1.421610       -38.6840
  10   2.0000      -1.192862       -32.4594
  11   2.0000      -1.077207       -29.3123
  12   2.0000      -1.034128       -28.1401
  13   2.0000      -0.990238       -26.9457
  14   2.0000      -0.947894       -25.7935
  15   2.0000      -0.872557       -23.7435
  16   2.0000      -0.777738       -21.1633
  17   2.0000      -0.711252       -19.3541
  18   2.0000      -0.672052       -18.2875
  19   2.0000      -0.642352       -17.4793
  20   2.0000      -0.633268       -17.2321
  21   2.0000      -0.609388       -16.5823
  22   2.0000      -0.587622       -15.9900
  23   2.0000      -0.585422       -15.9301
  24   2.0000      -0.579426       -15.7670
  25   2.0000      -0.568436       -15.4679
  26   2.0000      -0.553571       -15.0634
  27   2.0000      -0.534301       -14.5391
  28   2.0000      -0.505320       -13.7505
  29   2.0000      -0.495246       -13.4763
  30   2.0000      -0.432432       -11.7671
  31   2.0000      -0.400623       -10.9015
  32   2.0000      -0.374647       -10.1947
  33   2.0000      -0.365648        -9.9498
  34   0.0000       0.133836         3.6419
  35   0.0000       0.141724         3.8565
  36   0.0000       0.163005         4.4356
  37   0.0000       0.181182         4.9302
  38   0.0000       0.183579         4.9954

MULLIKEN ATOMIC CHARGES
-----------------------
   0 C :   -0.480726
   1 C :    0.100865
   2 C :   -0.011678
   3 C :   -0.043162
   4 C :   -0.396099
   5 O :   -0.251586
   6 C :    0.215578
   7 C :   -0.376208
   8 N :   -0.432893
   9 H :    0.164176
  10 H :    0.161854
  11 H :    0.162760
  12 H :    0.133378
  13 H :    0.132274
  14 H :    0.128368
  15 H :    0.156572
  16 H :    0.151464
  17 H :    0.121848
  18 H :    0.149294
  19 H :    0.213921
Sum of atomic charges:    0.0000000

LOEWDIN ATOMIC CHARGES
----------------------
   0 C :   -0.293532
   1 C :   -0.092154
   2 C :   -0.061671
   3 C :   -0.295410
   4 C :   -0.274810
   5 O :    0.274855
   6 C :   -0.441892
   7 C :   -0.276255
   8 N :   -0.082292
   9 H :    0.142616
  10 H :    0.140848
  11 H :    0.140950
  12 H :    0.163375
  13 H :    0.131023
  14 H :    0.127384
  15 H :    0.129678
  16 H :    0.138137
  17 H :    0.126594
  18 H :    0.137574
  19 H :    0.164983

  Mayer bond orders larger than 0.1
B(  0-C ,  1-C ) :   0.8502 B(  0-C ,  9-H ) :   0.9446 B(  0-C , 10-H ) :   0.9466
B(  0-C , 11-H ) :   0.9488 B(  1-C ,  2-C ) :   2.6844 B(  1-C ,  3-C ) :  -0.1076
B(  2-C ,  3-C ) :   1.0443 B(  3-C ,  4-C ) :   0.9331 B(  3-C ,  5-O ) :   0.8807
B(  3-C , 12-H ) :   0.9517 B(  4-C , 13-H ) :   0.9299 B(  4-C , 14-H ) :   0.9303
B(  4-C , 15-H ) :   0.9341 B(  5-O ,  6-C ) :   1.0863 B(  6-C ,  7-C ) :   0.9211
B(  6-C ,  8-N ) :   1.8778 B(  7-C , 16-H ) :   0.9198 B(  7-C , 17-H ) :   0.9403
B(  7-C , 18-H ) :   0.9210 B(  8-N , 19-H ) :   0.8607

MP2 TOTAL ENERGY:     -402.434838421 Eh
FINAL SINGLE POINT ENERGY      -402.434838421332

DIPOLE MOMENT
-------------
                                X             Y             Z
Electronic contribution:      1.28880      -0.74990       0.99895
Nuclear contribution   :     -1.07449       0.86910      -1.38225
                        -----------------------------------------
Total Dipole Moment    :      0.21431       0.11920      -0.38331
                        -----------------------------------------
Magnitude (a.u.)       :      0.45504
Magnitude (Debye)      :      1.15663

                             ****ORCA TERMINATED NORMALLY****
TOTAL RUN TIME: 0 days 0 hours 15 minutes 47 seconds 556 msec
