                         Program Version 3.0.3 - RELEASE   -
|  1> ! RI-MP2 RIJK def2-TZVP def2-TZVP/C def2-TZVP/JK TIGHTSCF
|  2> % maxcore 2000
|  3> % mp2 density relaxed end
|  4> *xyz 0 1
|  5>  C       -0.2533108424     1.3934459663     0.3928491143
|  6>  N       -0.0663094362    -0.0450192057     0.1549708435
|  7>  C        0.4926853223    -0.4043349515    -1.1322037122
|  8>  C        1.9263206254     0.1037016906    -1.4136730703
|  9>  O        2.6136426179     0.5711175615    -0.5468662521
| 10>  C        0.5829829136    -1.9515442382    -1.2040919594
| 11>  O        1.0644748420    -2.5596681216    -2.1161913851
| 12>  C       -0.4361213123     0.0123790377    -2.2792475376
| 13>  O       -0.0904441629     0.0663292422    -3.4274891492
| 14>  H        0.6712256870     1.9796320104     0.3277443333
| 15>  H       -0.9753017012     1.8002892069    -0.3216400911
| 16>  H       -0.6794510812     1.5228959791     1.3909106020
| 17>  H        0.5419325227    -0.4096009718     0.8819941027
| 18>  H        2.2605011251    -0.0172765158    -2.4603660496
| 19>  H        0.1521908578    -2.4349011791    -0.3008771570
| 20>  H       -1.4727971176     0.2285640989    -1.9485985122
| 21> *
| 22>
| 23>                          ****END OF INPUT****

CARTESIAN COORDINATES (ANGSTROEM)
---------------------------------
  C     -0.253311    1.393446    0.392849
  N     -0.066309   -0.045019    0.154971
  C      0.492685   -0.404335   -1.132204
  C      1.926321    0.103702   -1.413673
  O      2.613643    0.571118   -0.546866
  C      0.582983   -1.951544   -1.204092
  O      1.064475   -2.559668   -2.116191
  C     -0.436121    0.012379   -2.279248
  O     -0.090444    0.066329   -3.427489
  H      0.671226    1.979632    0.327744
  H     -0.975302    1.800289   -0.321640
  H     -0.679451    1.522896    1.390911
  H      0.541933   -0.409601    0.881994
  H      2.260501   -0.017277   -2.460366
  H      0.152191   -2.434901   -0.300877
  H     -1.472797    0.228564   -1.948599

 Total Charge           Charge          ....    0
 Multiplicity           Mult            ....    1
 Number of Electrons    NEL             ....   68
 Basis Dimension        Dim             ....  321

ORBITAL ENERGIES
----------------

  NO   OCC          E(Eh)            E(eV)
   0   2.0000     -20.594130      -560.3948
   1   2.0000     -20.589750      -560.2756
   2   2.0000     -20.584003      -560.1192
   3   2.0000     -15.588129      -424.1745
   4   2.0000     -11.369313      -309.3747
   5   2.0000     -11.365226      -309.2635
   6   2.0000     -11.356077      -309.0146
   7   2.0000     -11.317666      -307.9693
   8   2.0000     -11.270684      -306.6909
   9   2.0000      -1.440774       -39.2055
  10   2.0000      -1.427881       -38.8546
  11   2.0000      -1.424104       -38.7518
  12   2.0000      -1.255138       -34.1540
  13   2.0000      -1.060504       -28.8578
  14   2.0000      -0.931296       -25.3419
  15   2.0000      -0.883967       -24.0540
  16   2.0000      -0.871434       -23.7129
  17   2.0000      -0.771270       -20.9873
  18   2.0000      -0.727137       -19.7864
  19   2.0000      -0.718094       -19.5403
  20   2.0000      -0.697194       -18.9716
  21   2.0000      -0.685210       -18.6455
  22   2.0000      -0.660110       -17.9625
  23   2.0000      -0.643162       -17.5013
  24   2.0000      -0.620008       -16.8713
  25   2.0000      -0.590573       -16.0703
  26   2.0000      -0.565255       -15.3814
  27   2.0000      -0.559777       -15.2323
  28   2.0000      -0.554554       -15.0902
  29   2.0000      -0.539653       -14.6847
  30   2.0000      -0.491636       -13.3781
  31   2.0000      -0.458532       -12.4773
  32   2.0000      -0.435705       -11.8561
  33   2.0000      -0.401609       -10.9283
  34   0.0000       0.071206         1.9376
  35   0.0000       0.100005         2.7213
  36   0.0000       0.135682         3.6921
  37   0.0000       0.141548         3.8517
  38   0.0000       0.165613         4.5065

MULLIKEN ATOMIC CHARGES
-----------------------
   0 C :   -0.323076
   1 N :   -0.375665
   2 C :    0.239213
   3 C :    0.065457
   4 O :   -0.259170
   5 C :    0.052396
   6 O :   -0.224694
   7 C :    0.036437
   8 O :   -0.238108
   9 H :    0.153761
  10 H :    0.131884
  11 H :    0.146995
  12 H :    0.219402
  13 H :    0.140484
  14 H :    0.113430
  15 H :    0.121253
Sum of atomic charges:   -0.0000000

LOEWDIN ATOMIC CHARGES
----------------------
   0 C :   -0.332761
   1 N :    0.006949
   2 C :   -0.353012
   3 C :   -0.240553
   4 O :    0.152811
   5 C :   -0.242452
   6 O :    0.178701
   7 C :   -0.250620
   8 O :    0.168514
   9 H :    0.110565
  10 H :    0.116227
  11 H :    0.120762
  12 H :    0.181778
  13 H :    0.133612
  14 H :    0.123645
  15 H :    0.125835

  Mayer bond orders larger than 0.1
B(  0-C ,  1-N ) :   0.9019 B(  0-C ,  9-H ) :   0.9262 B(  0-C , 10-H ) :   0.9360
B(  0-C , 11-H ) :   0.9369 B(  1-N ,  2-C ) :   0.9693 B(  1-N , 12-H ) :   0.8747
B(  2-C ,  3-C ) :   0.8211 B(  2-C ,  5-C ) :   0.7567 B(  2-C ,  7-C ) :   0.7924
B(  3-C ,  4-O ) :   1.9664 B(  3-C , 13-H ) :   0.9170 B(  5-C ,  6-O ) :   2.0233
B(  5-C , 14-H ) :   0.9327 B(  7-C ,  8-O ) :   1.9984 B(  7-C , 15-H ) :   0.9358

MP2 TOTAL ENERGY:     -474.261853215 Eh
FINAL SINGLE POINT ENERGY      -474.261853215406

DIPOLE MOMENT
-------------
                                X             Y             Z
Electronic contribution:      3.13363      -4.14156      -5.07943
Nuclear contribution   :     -3.82317       4.46738       6.10799
                        -----------------------------------------
Total Dipole Moment    :     -0.68954       0.32583       1.02857
                        -----------------------------------------
Magnitude (a.u.)       :      1.28046
Magnitude (Debye)      :      3.25467

                             ****ORCA TERMINATED NORMALLY****
TOTAL RUN TIME: 0 days 0 hours 15 minutes 14 seconds 312 msec
