                         Program Version 3.0.3 - RELEASE   -
|  1> ! RI-MP2 RIJK def2-TZVP def2-TZVP/C def2-TZVP/JK TIGHTSCF
|  2> % maxcore 2000
|  3> % mp2 density relaxed end
|  4> *xyz 0 1
|  5>  C       -0.0088468723     1.5874509152     0.1511886575
|  6>  N        1.4820588982     1.2384695234     0.0634525782
|  7>  C        1.1163543113     0.0485385266     0.9912566952
|  8>  C       -0.0127899995     0.0427797149    -0.0507656823
|  9>  O       -1.0727166689    -0.8133483182    -0.2822086361
| 10>  C       -1.6071699494    -0.5344902350    -1.5877749367
| 11>  C       -0.5467822058    -0.4667895493    -2.7078284354
| 12>  C        0.5440433030     0.6098977993    -2.4588058928
| 13>  C        1.0886053313     0.2592577519    -1.0819447483
| 14>  H       -0.3036240242     1.9696073164     1.1312988751
| 15>  H       -0.3598787747     2.2469271605    -0.6415253563
| 16>  H        1.8437016211    -0.7665188251     0.9636523681
| 17>  H        0.8900627290     0.3618656167     2.0128538183
| 18>  H       -2.3205311290    -1.3365253256    -1.7916243377
| 19>  H       -2.1667823180     0.4134096899    -1.5537534877
| 20>  H       -0.0693741892    -1.4507683482    -2.7960302489
| 21>  H       -1.0664008822    -0.2787863538    -3.6538980102
| 22>  H        1.3136001117     0.5707458968    -3.2355657365
| 23>  H        0.0992549231     1.6077593326    -2.5023857371
| 24>  H        1.8247858645    -0.5481494591    -1.1572266466
| 25> *
| 26>
| 27>                          ****END OF INPUT****

CARTESIAN COORDINATES (ANGSTROEM)
---------------------------------
  C     -0.008847    1.587451    0.151189
  N      1.482059    1.238470    0.063453
  C      1.116354    0.048539    0.991257
  C     -0.012790    0.042780   -0.050766
  O     -1.072717   -0.813348   -0.282209
  C     -1.607170   -0.534490   -1.587775
  C     -0.546782   -0.466790   -2.707828
  C      0.544043    0.609898   -2.458806
  C      1.088605    0.259258   -1.081945
  H     -0.303624    1.969607    1.131299
  H     -0.359879    2.246927   -0.641525
  H      1.843702   -0.766519    0.963652
  H      0.890063    0.361866    2.012854
  H     -2.320531   -1.336525   -1.791624
  H     -2.166782    0.413410   -1.553753
  H     -0.069374   -1.450768   -2.796030
  H     -1.066401   -0.278786   -3.653898
  H      1.313600    0.570746   -3.235566
  H      0.099255    1.607759   -2.502386
  H      1.824786   -0.548149   -1.157227

 Total Charge           Charge          ....    0
 Multiplicity           Mult            ....    1
 Number of Electrons    NEL             ....   68
 Basis Dimension        Dim             ....  345

ORBITAL ENERGIES
----------------

  NO   OCC          E(Eh)            E(eV)
   0   2.0000     -20.564469      -559.5876
   1   2.0000     -15.573497      -423.7764
   2   2.0000     -11.294874      -307.3491
   3   2.0000     -11.284364      -307.0631
   4   2.0000     -11.261730      -306.4472
   5   2.0000     -11.257439      -306.3305
   6   2.0000     -11.255132      -306.2677
   7   2.0000     -11.236108      -305.7500
   8   2.0000     -11.231888      -305.6352
   9   2.0000      -1.391703       -37.8702
  10   2.0000      -1.287809       -35.0431
  11   2.0000      -1.076466       -29.2921
  12   2.0000      -0.976606       -26.5748
  13   2.0000      -0.927484       -25.2381
  14   2.0000      -0.911320       -24.7983
  15   2.0000      -0.860384       -23.4122
  16   2.0000      -0.818328       -22.2678
  17   2.0000      -0.735963       -20.0266
  18   2.0000      -0.684536       -18.6272
  19   2.0000      -0.664181       -18.0733
  20   2.0000      -0.651674       -17.7330
  21   2.0000      -0.623553       -16.9677
  22   2.0000      -0.606874       -16.5139
  23   2.0000      -0.585969       -15.9450
  24   2.0000      -0.550218       -14.9722
  25   2.0000      -0.529543       -14.4096
  26   2.0000      -0.510573       -13.8934
  27   2.0000      -0.500912       -13.6305
  28   2.0000      -0.485245       -13.2042
  29   2.0000      -0.470527       -12.8037
  30   2.0000      -0.463358       -12.6086
  31   2.0000      -0.436667       -11.8823
  32   2.0000      -0.407264       -11.0822
  33   2.0000      -0.379260       -10.3202
  34   0.0000       0.133865         3.6426
  35   0.0000       0.153005         4.1635
  36   0.0000       0.163505         4.4492
  37   0.0000       0.168668         4.5897
  38   0.0000       0.190776         5.1913

MULLIKEN ATOMIC CHARGES
-----------------------
   0 C :   -0.201277
   1 N :   -0.194943
   2 C :   -0.112056
   3 C :    0.096955
   4 O :   -0.293069
   5 C :   -0.072405
   6 C :   -0.220892
   7 C :   -0.255700
   8 C :   -0.044461
   9 H :    0.115305
  10 H :    0.114585
  11 H :    0.113513
  12 H :    0.120331
  13 H :    0.136895
  14 H :    0.096209
  15 H :    0.115573
  16 H :    0.130323
  17 H :    0.132031
  18 H :    0.124646
  19 H :    0.098438
Sum of atomic charges:    0.0000000

LOEWDIN ATOMIC CHARGES
----------------------
   0 C :   -0.212475
   1 N :    0.110520
   2 C :   -0.192552
   3 C :   -0.351029
   4 O :    0.192758
   5 C :   -0.290222
   6 C :   -0.256608
   7 C :   -0.242140
   8 C :   -0.214764
   9 H :    0.124645
  10 H :    0.120013
  11 H :    0.126322
  12 H :    0.125959
  13 H :    0.131228
  14 H :    0.123031
  15 H :    0.141709
  16 H :    0.141551
  17 H :    0.137134
  18 H :    0.139346
  19 H :    0.145572

  Mayer bond orders larger than 0.1
B(  0-C ,  1-N ) :   0.9278 B(  0-C ,  3-C ) :   0.9358 B(  0-C ,  9-H ) :   0.9276
B(  0-C , 10-H ) :   0.9152 B(  1-N ,  2-C ) :   0.9094 B(  1-N ,  8-C ) :   0.9249
B(  2-C ,  3-C ) :   0.9398 B(  2-C , 11-H ) :   0.9188 B(  2-C , 12-H ) :   0.9268
B(  3-C ,  4-O ) :   0.9983 B(  3-C ,  8-C ) :   0.9046 B(  4-O ,  5-C ) :   0.9037
B(  5-C ,  6-C ) :   0.9389 B(  5-C , 13-H ) :   0.9277 B(  5-C , 14-H ) :   0.9354
B(  6-C ,  7-C ) :   0.9024 B(  6-C , 15-H ) :   0.9216 B(  6-C , 16-H ) :   0.9227
B(  7-C ,  8-C ) :   0.9152 B(  7-C , 17-H ) :   0.9358 B(  7-C , 18-H ) :   0.9322
B(  8-C , 19-H ) :   0.9267

MP2 TOTAL ENERGY:     -402.387979776 Eh
FINAL SINGLE POINT ENERGY      -402.387979775934

DIPOLE MOMENT
-------------
                                X             Y             Z
Electronic contribution:      0.69586      -0.62845       3.71358
Nuclear contribution   :     -1.14324       0.48694      -4.31755
                        -----------------------------------------
Total Dipole Moment    :     -0.44738      -0.14151      -0.60398
                        -----------------------------------------
Magnitude (a.u.)       :      0.76483
Magnitude (Debye)      :      1.94404

                             ****ORCA TERMINATED NORMALLY****
TOTAL RUN TIME: 0 days 0 hours 21 minutes 12 seconds 911 msec
