                         Program Version 3.0.3 - RELEASE   -
|  1> ! RI-MP2 RIJK def2-TZVP def2-TZVP/C def2-TZVP/JK TIGHTSCF
|  2> % maxcore 2000
|  3> % mp2 density relaxed end
|  4> *xyz 0 1
|  5>  C       -0.1359282415     1.5208713914    -0.0391857836
|  6>  C       -0.0020504114    -0.0032902054    -0.0083946724
|  7>  C        0.7853925839    -0.5557767649    -1.2042236198
|  8>  C        0.8638207924    -2.0541118581    -1.2236578178
|  9>  C        1.3621968458    -3.0509697927    -0.1399956318
| 10>  C        0.6563650060    -3.8380377830    -1.2629034740
| 11>  O       -0.4200384817    -2.8218893612    -1.2626661900
| 12>  C        1.4258428485    -3.0105829247    -2.3269763489
| 13>  C        0.8743969782    -2.9170171574    -3.7365559025
| 14>  H        0.8459714585     2.0076493875    -0.0268411512
| 15>  H       -0.6575010727     1.8545898812    -0.9431973474
| 16>  H       -0.6997988814     1.8876736626     0.8240533758
| 17>  H        0.4914341866    -0.3116297900     0.9216785711
| 18>  H       -0.9934638721    -0.4691596885     0.0025634403
| 19>  H        0.3215957163    -0.2212521947    -2.1415390970
| 20>  H        1.8092302980    -0.1578960790    -1.2026718165
| 21>  H        2.4408922644    -3.1779484330    -0.0140582180
| 22>  H        0.8205998526    -3.0168090068     0.8057072317
| 23>  H        0.3506138968    -4.8846135099    -1.2865278708
| 24>  H        2.5141735291    -3.1369633143    -2.3090091663
| 25>  H       -0.2102897488    -2.7929400810    -3.7114306915
| 26>  H        1.3117758750    -2.0685087055    -4.2742486236
| 27>  H        1.1092810378    -3.8213488426    -4.3084301759
| 28> *
| 29>
| 30>                          ****END OF INPUT****

CARTESIAN COORDINATES (ANGSTROEM)
---------------------------------
  C     -0.135928    1.520871   -0.039186
  C     -0.002050   -0.003290   -0.008395
  C      0.785393   -0.555777   -1.204224
  C      0.863821   -2.054112   -1.223658
  C      1.362197   -3.050970   -0.139996
  C      0.656365   -3.838038   -1.262903
  O     -0.420038   -2.821889   -1.262666
  C      1.425843   -3.010583   -2.326976
  C      0.874397   -2.917017   -3.736556
  H      0.845971    2.007649   -0.026841
  H     -0.657501    1.854590   -0.943197
  H     -0.699799    1.887674    0.824053
  H      0.491434   -0.311630    0.921679
  H     -0.993464   -0.469160    0.002563
  H      0.321596   -0.221252   -2.141539
  H      1.809230   -0.157896   -1.202672
  H      2.440892   -3.177948   -0.014058
  H      0.820600   -3.016809    0.805707
  H      0.350614   -4.884614   -1.286528
  H      2.514174   -3.136963   -2.309009
  H     -0.210290   -2.792940   -3.711431
  H      1.311776   -2.068509   -4.274249
  H      1.109281   -3.821349   -4.308430

 Total Charge           Charge          ....    0
 Multiplicity           Mult            ....    1
 Number of Electrons    NEL             ....   70
 Basis Dimension        Dim             ....  363

ORBITAL ENERGIES
----------------

  NO   OCC          E(Eh)            E(eV)
   0   2.0000     -20.536899      -558.8374
   1   2.0000     -11.296191      -307.3850
   2   2.0000     -11.291264      -307.2509
   3   2.0000     -11.236678      -305.7656
   4   2.0000     -11.229840      -305.5795
   5   2.0000     -11.224672      -305.4388
   6   2.0000     -11.218356      -305.2670
   7   2.0000     -11.212220      -305.1000
   8   2.0000     -11.210340      -305.0489
   9   2.0000      -1.384667       -37.6787
  10   2.0000      -1.082685       -29.4614
  11   2.0000      -1.061985       -28.8981
  12   2.0000      -0.990477       -26.9523
  13   2.0000      -0.961878       -26.1740
  14   2.0000      -0.859102       -23.3773
  15   2.0000      -0.842657       -22.9299
  16   2.0000      -0.797395       -21.6982
  17   2.0000      -0.721525       -19.6337
  18   2.0000      -0.658976       -17.9317
  19   2.0000      -0.641059       -17.4441
  20   2.0000      -0.631960       -17.1965
  21   2.0000      -0.599374       -16.3098
  22   2.0000      -0.582205       -15.8426
  23   2.0000      -0.564509       -15.3611
  24   2.0000      -0.557038       -15.1578
  25   2.0000      -0.528142       -14.3715
  26   2.0000      -0.516575       -14.0567
  27   2.0000      -0.508512       -13.8373
  28   2.0000      -0.491925       -13.3860
  29   2.0000      -0.482045       -13.1171
  30   2.0000      -0.472209       -12.8495
  31   2.0000      -0.455799       -12.4029
  32   2.0000      -0.442273       -12.0348
  33   2.0000      -0.419762       -11.4223
  34   2.0000      -0.399920       -10.8824
  35   0.0000       0.136278         3.7083
  36   0.0000       0.149756         4.0751
  37   0.0000       0.161164         4.3855
  38   0.0000       0.172349         4.6899
  39   0.0000       0.184913         5.0317

MULLIKEN ATOMIC CHARGES
-----------------------
   0 C :   -0.391865
   1 C :   -0.199258
   2 C :   -0.291987
   3 C :    0.084249
   4 C :   -0.145030
   5 C :   -0.069085
   6 O :   -0.332525
   7 C :    0.060191
   8 C :   -0.469138
   9 H :    0.119671
  10 H :    0.125106
  11 H :    0.135457
  12 H :    0.107135
  13 H :    0.135261
  14 H :    0.126014
  15 H :    0.116527
  16 H :    0.110608
  17 H :    0.122002
  18 H :    0.134201
  19 H :    0.100495
  20 H :    0.159071
  21 H :    0.129727
  22 H :    0.133172
Sum of atomic charges:   -0.0000000

LOEWDIN ATOMIC CHARGES
----------------------
   0 C :   -0.320860
   1 C :   -0.284976
   2 C :   -0.233698
   3 C :   -0.250205
   4 C :   -0.182619
   5 C :   -0.216109
   6 O :    0.135884
   7 C :   -0.196290
   8 C :   -0.300778
   9 H :    0.119389
  10 H :    0.120848
  11 H :    0.121247
  12 H :    0.135769
  13 H :    0.142567
  14 H :    0.150249
  15 H :    0.148834
  16 H :    0.128093
  17 H :    0.132814
  18 H :    0.122727
  19 H :    0.144498
  20 H :    0.132956
  21 H :    0.124424
  22 H :    0.125236

  Mayer bond orders larger than 0.1
B(  0-C ,  1-C ) :   0.9131 B(  0-C ,  9-H ) :   0.9376 B(  0-C , 10-H ) :   0.9408
B(  0-C , 11-H ) :   0.9449 B(  1-C ,  2-C ) :   0.9473 B(  1-C , 12-H ) :   0.9315
B(  1-C , 13-H ) :   0.9328 B(  2-C ,  3-C ) :   0.8884 B(  2-C , 14-H ) :   0.9257
B(  2-C , 15-H ) :   0.9225 B(  3-C ,  4-C ) :   0.8785 B(  3-C ,  6-O ) :   0.8628
B(  3-C ,  7-C ) :   0.8342 B(  4-C ,  5-C ) :   0.9217 B(  4-C , 16-H ) :   0.9156
B(  4-C , 17-H ) :   0.9249 B(  5-C ,  6-O ) :   0.8960 B(  5-C ,  7-C ) :   0.9383
B(  5-C , 18-H ) :   0.8906 B(  7-C ,  8-C ) :   0.8934 B(  7-C , 19-H ) :   0.9224
B(  8-C , 20-H ) :   0.9376 B(  8-C , 21-H ) :   0.9363 B(  8-C , 22-H ) :   0.9356

MP2 TOTAL ENERGY:     -387.561334770 Eh
FINAL SINGLE POINT ENERGY      -387.561334770481

DIPOLE MOMENT
-------------
                                X             Y             Z
Electronic contribution:     -0.57035      -6.75758       0.20067
Nuclear contribution   :      1.27482       6.81490      -0.18839
                        -----------------------------------------
Total Dipole Moment    :      0.70447       0.05732       0.01229
                        -----------------------------------------
Magnitude (a.u.)       :      0.70690
Magnitude (Debye)      :      1.79681

                             ****ORCA TERMINATED NORMALLY****
TOTAL RUN TIME: 0 days 0 hours 19 minutes 18 seconds 84 msec
