                         Program Version 3.0.3 - RELEASE   -
|  1> ! RI-MP2 RIJK def2-TZVP def2-TZVP/C def2-TZVP/JK TIGHTSCF
|  2> % maxcore 2000
|  3> % mp2 density relaxed end
|  4> *xyz 0 1
|  5>  C        0.0722103482     1.1964076241    -0.3040206419
|  6>  O       -0.0538986423    -0.1194791657     0.2233661556
|  7>  C       -1.3222316768    -0.6675477393     0.0750853815
|  8>  C       -2.3582351300     0.0050284290     0.8403340458
|  9>  N       -3.1662069637     0.5678548482     1.4471303167
| 10>  C       -1.7985477314    -1.2762547898    -1.2325457530
| 11>  C       -0.6006789035    -1.8632042148    -1.9906514294
| 12>  C       -0.2696597536    -2.7595872200    -0.7551444244
| 13>  C       -1.4730671479    -2.1614347444    -0.0171372418
| 14>  H        1.1188026698     1.4800909621    -0.1811473525
| 15>  H       -0.1932437314     1.2266976222    -1.3688340614
| 16>  H       -0.5621131582     1.9067283964     0.2412534759
| 17>  H       -2.7592155188    -1.0065826441    -1.6539055861
| 18>  H       -0.9154292002    -2.4499747925    -2.8553695787
| 19>  H        0.1673906482    -1.1531912485    -2.3058114093
| 20>  H       -0.4067533458    -3.8216905966    -0.9650641828
| 21>  H        0.7006506333    -2.6061461231    -0.2801219857
| 22>  H       -2.1389168157    -2.6862646333     0.6566631115
| 23> *
| 24>
| 25>                          ****END OF INPUT****

CARTESIAN COORDINATES (ANGSTROEM)
---------------------------------
  C      0.072210    1.196408   -0.304021
  O     -0.053899   -0.119479    0.223366
  C     -1.322232   -0.667548    0.075085
  C     -2.358235    0.005028    0.840334
  N     -3.166207    0.567855    1.447130
  C     -1.798548   -1.276255   -1.232546
  C     -0.600679   -1.863204   -1.990651
  C     -0.269660   -2.759587   -0.755144
  C     -1.473067   -2.161435   -0.017137
  H      1.118803    1.480091   -0.181147
  H     -0.193244    1.226698   -1.368834
  H     -0.562113    1.906728    0.241253
  H     -2.759216   -1.006583   -1.653906
  H     -0.915429   -2.449975   -2.855370
  H      0.167391   -1.153191   -2.305811
  H     -0.406753   -3.821691   -0.965064
  H      0.700651   -2.606146   -0.280122
  H     -2.138917   -2.686265    0.656663

 Total Charge           Charge          ....    0
 Multiplicity           Mult            ....    1
 Number of Electrons    NEL             ....   66
 Basis Dimension        Dim             ....  333

ORBITAL ENERGIES
----------------

  NO   OCC          E(Eh)            E(eV)
   0   2.0000     -20.586479      -560.1866
   1   2.0000     -15.574042      -423.7912
   2   2.0000     -11.338483      -308.5358
   3   2.0000     -11.286001      -307.1077
   4   2.0000     -11.275517      -306.8224
   5   2.0000     -11.263237      -306.4882
   6   2.0000     -11.262419      -306.4660
   7   2.0000     -11.245577      -306.0077
   8   2.0000     -11.242726      -305.9301
   9   2.0000      -1.412866       -38.4461
  10   2.0000      -1.226409       -33.3723
  11   2.0000      -1.203488       -32.7486
  12   2.0000      -1.027604       -27.9625
  13   2.0000      -0.948763       -25.8172
  14   2.0000      -0.915451       -24.9107
  15   2.0000      -0.860136       -23.4055
  16   2.0000      -0.762756       -20.7556
  17   2.0000      -0.749968       -20.4077
  18   2.0000      -0.688666       -18.7396
  19   2.0000      -0.667312       -18.1585
  20   2.0000      -0.649462       -17.6727
  21   2.0000      -0.615128       -16.7385
  22   2.0000      -0.604051       -16.4371
  23   2.0000      -0.560562       -15.2537
  24   2.0000      -0.547374       -14.8948
  25   2.0000      -0.524396       -14.2695
  26   2.0000      -0.508678       -13.8418
  27   2.0000      -0.500249       -13.6125
  28   2.0000      -0.489575       -13.3220
  29   2.0000      -0.477787       -13.0013
  30   2.0000      -0.465772       -12.6743
  31   2.0000      -0.413097       -11.2409
  32   2.0000      -0.401547       -10.9266
  33   0.0000       0.131861         3.5881
  34   0.0000       0.145283         3.9534
  35   0.0000       0.153169         4.1679
  36   0.0000       0.164898         4.4871
  37   0.0000       0.177452         4.8287

MULLIKEN ATOMIC CHARGES
-----------------------
   0 C :   -0.234080
   1 O :   -0.300805
   2 C :    0.328857
   3 C :   -0.232189
   4 N :   -0.045316
   5 C :   -0.170281
   6 C :   -0.211747
   7 C :   -0.197387
   8 C :   -0.167919
   9 H :    0.147103
  10 H :    0.123321
  11 H :    0.143384
  12 H :    0.150717
  13 H :    0.132528
  14 H :    0.118710
  15 H :    0.131885
  16 H :    0.127017
  17 H :    0.156202
Sum of atomic charges:    0.0000000

LOEWDIN ATOMIC CHARGES
----------------------
   0 C :   -0.326145
   1 O :    0.213843
   2 C :   -0.322481
   3 C :   -0.143145
   4 N :    0.071215
   5 C :   -0.130128
   6 C :   -0.206731
   7 C :   -0.204171
   8 C :   -0.119839
   9 H :    0.117033
  10 H :    0.107606
  11 H :    0.113344
  12 H :    0.143107
  13 H :    0.138314
  14 H :    0.130379
  15 H :    0.137717
  16 H :    0.134827
  17 H :    0.145255

  Mayer bond orders larger than 0.1
B(  0-C ,  1-O ) :   0.8740 B(  0-C ,  9-H ) :   0.9372 B(  0-C , 10-H ) :   0.9322
B(  0-C , 11-H ) :   0.9319 B(  1-O ,  2-C ) :   0.9757 B(  2-C ,  3-C ) :   0.8899
B(  2-C ,  5-C ) :   0.8770 B(  2-C ,  8-C ) :   0.8625 B(  3-C ,  4-N ) :   2.8786
B(  5-C ,  6-C ) :   0.9309 B(  5-C ,  8-C ) :   0.8156 B(  5-C , 12-H ) :   0.9128
B(  6-C ,  7-C ) :   0.9889 B(  6-C , 13-H ) :   0.9256 B(  6-C , 14-H ) :   0.9153
B(  7-C ,  8-C ) :   0.9481 B(  7-C , 15-H ) :   0.9275 B(  7-C , 16-H ) :   0.9083
B(  8-C , 17-H ) :   0.9186

MP2 TOTAL ENERGY:     -401.222460262 Eh
FINAL SINGLE POINT ENERGY      -401.222460262214

DIPOLE MOMENT
-------------
                                X             Y             Z
Electronic contribution:     -4.38385       1.54465       5.22803
Nuclear contribution   :      5.15164      -2.11697      -6.40412
                        -----------------------------------------
Total Dipole Moment    :      0.76780      -0.57232      -1.17609
                        -----------------------------------------
Magnitude (a.u.)       :      1.51666
Magnitude (Debye)      :      3.85504

                             ****ORCA TERMINATED NORMALLY****
TOTAL RUN TIME: 0 days 0 hours 19 minutes 6 seconds 443 msec
