                         Program Version 3.0.3 - RELEASE   -
|  1> ! RI-MP2 RIJK def2-TZVP def2-TZVP/C def2-TZVP/JK TIGHTSCF
|  2> % maxcore 2000
|  3> % mp2 density relaxed end
|  4> *xyz 0 1
|  5>  C       -0.1622808561     1.5451876873     0.0636771905
|  6>  C        0.0495088742     0.0292126867     0.0088922909
|  7>  C        0.8122643646    -0.5161204244     1.1986694261
|  8>  O        0.1690086069    -0.2083243282     2.4550320853
|  9>  C        1.1383520823    -0.8710626401     3.2774842141
| 10>  C        1.1139350938    -2.2846234769     2.6378179864
| 11>  C        0.9185365114    -2.0625356501     1.3435256345
| 12>  C        2.4333808173    -0.1690147532     2.7930916460
| 13>  C        2.2328085375     0.0478110446     1.4983448760
| 14>  H        0.7919659272     2.0818954108     0.0668448868
| 15>  H       -0.7394549913     1.8889840479    -0.7996333260
| 16>  H       -0.7005022391     1.8229697552     0.9732363826
| 17>  H       -0.9190936940    -0.4814088722    -0.0413393201
| 18>  H        0.5958679145    -0.2484852373    -0.9015770920
| 19>  H        0.8887659193    -0.7933319115     4.3346307439
| 20>  H        1.2880584473    -3.2129583006     3.1626718411
| 21>  H        0.8850398710    -2.7606061791     0.5188077583
| 22>  H        3.3105119178     0.0127045513     3.3974639376
| 23>  H        2.9033655055     0.4582303900     0.7564824280
| 24> *
| 25>
| 26>                          ****END OF INPUT****

CARTESIAN COORDINATES (ANGSTROEM)
---------------------------------
  C     -0.162281    1.545188    0.063677
  C      0.049509    0.029213    0.008892
  C      0.812264   -0.516120    1.198669
  O      0.169009   -0.208324    2.455032
  C      1.138352   -0.871063    3.277484
  C      1.113935   -2.284623    2.637818
  C      0.918537   -2.062536    1.343526
  C      2.433381   -0.169015    2.793092
  C      2.232809    0.047811    1.498345
  H      0.791966    2.081895    0.066845
  H     -0.739455    1.888984   -0.799633
  H     -0.700502    1.822970    0.973236
  H     -0.919094   -0.481409   -0.041339
  H      0.595868   -0.248485   -0.901577
  H      0.888766   -0.793332    4.334631
  H      1.288058   -3.212958    3.162672
  H      0.885040   -2.760606    0.518808
  H      3.310512    0.012705    3.397464
  H      2.903366    0.458230    0.756482

 Total Charge           Charge          ....    0
 Multiplicity           Mult            ....    1
 Number of Electrons    NEL             ....   66
 Basis Dimension        Dim             ....  339

ORBITAL ENERGIES
----------------

  NO   OCC          E(Eh)            E(eV)
   0   2.0000     -20.546937      -559.1106
   1   2.0000     -11.294085      -307.3277
   2   2.0000     -11.290911      -307.2413
   3   2.0000     -11.229394      -305.5673
   4   2.0000     -11.229374      -305.5668
   5   2.0000     -11.227390      -305.5128
   6   2.0000     -11.227237      -305.5087
   7   2.0000     -11.225041      -305.4489
   8   2.0000     -11.209508      -305.0262
   9   2.0000      -1.392053       -37.8797
  10   2.0000      -1.092519       -29.7289
  11   2.0000      -1.056782       -28.7565
  12   2.0000      -1.028742       -27.9935
  13   2.0000      -0.956011       -26.0144
  14   2.0000      -0.855329       -23.2747
  15   2.0000      -0.777291       -21.1512
  16   2.0000      -0.769031       -20.9264
  17   2.0000      -0.733906       -19.9706
  18   2.0000      -0.692739       -18.8504
  19   2.0000      -0.671918       -18.2838
  20   2.0000      -0.614195       -16.7131
  21   2.0000      -0.591805       -16.1038
  22   2.0000      -0.566195       -15.4070
  23   2.0000      -0.548316       -14.9204
  24   2.0000      -0.547792       -14.9062
  25   2.0000      -0.530248       -14.4288
  26   2.0000      -0.515524       -14.0281
  27   2.0000      -0.484102       -13.1731
  28   2.0000      -0.481396       -13.0994
  29   2.0000      -0.456207       -12.4140
  30   2.0000      -0.430623       -11.7179
  31   2.0000      -0.383896       -10.4463
  32   2.0000      -0.325459        -8.8562
  33   0.0000       0.109931         2.9914
  34   0.0000       0.143382         3.9016
  35   0.0000       0.166348         4.5266
  36   0.0000       0.167506         4.5581
  37   0.0000       0.182220         4.9585

MULLIKEN ATOMIC CHARGES
-----------------------
   0 C :   -0.394679
   1 C :   -0.239995
   2 C :    0.362191
   3 O :   -0.298703
   4 C :    0.081532
   5 C :   -0.177880
   6 C :   -0.234854
   7 C :   -0.175905
   8 C :   -0.256632
   9 H :    0.121654
  10 H :    0.131774
  11 H :    0.147146
  12 H :    0.126871
  13 H :    0.110838
  14 H :    0.147969
  15 H :    0.137324
  16 H :    0.135822
  17 H :    0.136608
  18 H :    0.138920
Sum of atomic charges:   -0.0000000

LOEWDIN ATOMIC CHARGES
----------------------
   0 C :   -0.309337
   1 C :   -0.251004
   2 C :   -0.282330
   3 O :    0.219138
   4 C :   -0.242918
   5 C :   -0.128938
   6 C :   -0.110238
   7 C :   -0.129446
   8 C :   -0.110776
   9 H :    0.121634
  10 H :    0.120308
  11 H :    0.128729
  12 H :    0.147003
  13 H :    0.144633
  14 H :    0.137956
  15 H :    0.134806
  16 H :    0.137907
  17 H :    0.134869
  18 H :    0.138004

  Mayer bond orders larger than 0.1
B(  0-C ,  1-C ) :   0.9440 B(  0-C ,  9-H ) :   0.9353 B(  0-C , 10-H ) :   0.9388
B(  0-C , 11-H ) :   0.9351 B(  1-C ,  2-C ) :   0.8554 B(  1-C , 12-H ) :   0.9492
B(  1-C , 13-H ) :   0.9275 B(  2-C ,  3-O ) :   0.9311 B(  2-C ,  6-C ) :   0.8690
B(  2-C ,  8-C ) :   0.8938 B(  3-O ,  4-C ) :   0.9528 B(  4-C ,  5-C ) :   0.9223
B(  4-C ,  7-C ) :   0.9208 B(  4-C , 14-H ) :   0.8987 B(  5-C ,  6-C ) :   1.8331
B(  5-C , 15-H ) :   0.9222 B(  6-C , 16-H ) :   0.9243 B(  7-C ,  8-C ) :   1.8257
B(  7-C , 17-H ) :   0.9218 B(  8-C , 18-H ) :   0.9209

MP2 TOTAL ENERGY:     -385.184936463 Eh
FINAL SINGLE POINT ENERGY      -385.184936462808

DIPOLE MOMENT
-------------
                                X             Y             Z
Electronic contribution:      1.45786      -3.45044       4.77155
Nuclear contribution   :     -0.94454       3.14802      -4.96020
                        -----------------------------------------
Total Dipole Moment    :      0.51332      -0.30242      -0.18865
                        -----------------------------------------
Magnitude (a.u.)       :      0.62494
Magnitude (Debye)      :      1.58846

                             ****ORCA TERMINATED NORMALLY****
TOTAL RUN TIME: 0 days 0 hours 19 minutes 33 seconds 76 msec
