                         Program Version 3.0.3 - RELEASE   -
|  1> ! RI-MP2 RIJK def2-TZVP def2-TZVP/C def2-TZVP/JK TIGHTSCF
|  2> % maxcore 2000
|  3> % mp2 density relaxed end
|  4> *xyz 0 1
|  5>  C       -0.0376839368     1.4664691198     0.2482420083
|  6>  C       -0.0295118801    -0.0260049837    -0.0327147737
|  7>  O       -1.3523583861    -0.5119301091     0.0884542326
|  8>  C       -1.4644334074    -1.8871237283    -0.1689648521
|  9>  C       -2.9205746386    -2.2890020052    -0.0690866209
| 10>  C       -3.2530886504    -3.6597023220     0.3732895365
| 11>  O       -3.3917648393    -2.5613465952     1.2636338143
| 12>  C       -3.8398867863    -1.5823653974    -0.9294757369
| 13>  C       -4.5935452912    -1.0067671564    -1.6669708999
| 14>  H        0.9735909212     1.8752446704     0.1634081579
| 15>  H       -0.6851469933     1.9859802652    -0.4635267951
| 16>  H       -0.4100862236     1.6635851569     1.2572528033
| 17>  H        0.3563724645    -0.2295702768    -1.0463035097
| 18>  H        0.6337094100    -0.5511085153     0.6755588282
| 19>  H       -1.0891024365    -2.1306119083    -1.1780871194
| 20>  H       -0.8876078842    -2.4790064756     0.5599101672
| 21>  H       -4.1806814905    -4.1109207543     0.0270748129
| 22>  H       -2.4452946542    -4.3551876133     0.6005637645
| 23>  H       -5.2627276272    -0.4885013115    -2.3084680180
| 24> *
| 25>
| 26>                          ****END OF INPUT****

CARTESIAN COORDINATES (ANGSTROEM)
---------------------------------
  C     -0.037684    1.466469    0.248242
  C     -0.029512   -0.026005   -0.032715
  O     -1.352358   -0.511930    0.088454
  C     -1.464433   -1.887124   -0.168965
  C     -2.920575   -2.289002   -0.069087
  C     -3.253089   -3.659702    0.373290
  O     -3.391765   -2.561347    1.263634
  C     -3.839887   -1.582365   -0.929476
  C     -4.593545   -1.006767   -1.666971
  H      0.973591    1.875245    0.163408
  H     -0.685147    1.985980   -0.463527
  H     -0.410086    1.663585    1.257253
  H      0.356372   -0.229570   -1.046304
  H      0.633709   -0.551109    0.675559
  H     -1.089102   -2.130612   -1.178087
  H     -0.887608   -2.479006    0.559910
  H     -4.180681   -4.110921    0.027075
  H     -2.445295   -4.355188    0.600564
  H     -5.262728   -0.488501   -2.308468

 Total Charge           Charge          ....    0
 Multiplicity           Mult            ....    1
 Number of Electrons    NEL             ....   68
 Basis Dimension        Dim             ....  339

ORBITAL ENERGIES
----------------

  NO   OCC          E(Eh)            E(eV)
   0   2.0000     -20.580325      -560.0191
   1   2.0000     -20.559619      -559.4557
   2   2.0000     -11.320374      -308.0430
   3   2.0000     -11.296965      -307.4060
   4   2.0000     -11.292381      -307.2813
   5   2.0000     -11.278966      -306.9163
   6   2.0000     -11.238181      -305.8064
   7   2.0000     -11.231327      -305.6200
   8   2.0000     -11.215035      -305.1766
   9   2.0000      -1.427182       -38.8356
  10   2.0000      -1.383478       -37.6463
  11   2.0000      -1.066759       -29.0280
  12   2.0000      -1.027091       -27.9486
  13   2.0000      -0.976851       -26.5815
  14   2.0000      -0.913476       -24.8569
  15   2.0000      -0.859878       -23.3985
  16   2.0000      -0.836435       -22.7606
  17   2.0000      -0.737943       -20.0805
  18   2.0000      -0.703732       -19.1495
  19   2.0000      -0.681443       -18.5430
  20   2.0000      -0.675625       -18.3847
  21   2.0000      -0.660429       -17.9712
  22   2.0000      -0.600916       -16.3517
  23   2.0000      -0.597014       -16.2456
  24   2.0000      -0.563184       -15.3250
  25   2.0000      -0.540140       -14.6979
  26   2.0000      -0.526703       -14.3323
  27   2.0000      -0.505955       -13.7677
  28   2.0000      -0.487237       -13.2584
  29   2.0000      -0.483113       -13.1462
  30   2.0000      -0.461016       -12.5449
  31   2.0000      -0.428566       -11.6619
  32   2.0000      -0.400166       -10.8891
  33   2.0000      -0.381103       -10.3703
  34   0.0000       0.138953         3.7811
  35   0.0000       0.152381         4.1465
  36   0.0000       0.161794         4.4026
  37   0.0000       0.165556         4.5050
  38   0.0000       0.170464         4.6386

MULLIKEN ATOMIC CHARGES
-----------------------
   0 C :   -0.362466
   1 C :   -0.054900
   2 O :   -0.281682
   3 C :   -0.088760
   4 C :   -0.023766
   5 C :   -0.063104
   6 O :   -0.309291
   7 C :    0.064089
   8 C :   -0.099083
   9 H :    0.120884
  10 H :    0.131969
  11 H :    0.134115
  12 H :    0.090305
  13 H :    0.092024
  14 H :    0.102827
  15 H :    0.107418
  16 H :    0.127689
  17 H :    0.117847
  18 H :    0.193886
Sum of atomic charges:   -0.0000000

LOEWDIN ATOMIC CHARGES
----------------------
   0 C :   -0.314966
   1 C :   -0.350479
   2 O :    0.176663
   3 C :   -0.280965
   4 C :   -0.313719
   5 C :   -0.226856
   6 O :    0.189476
   7 C :   -0.058455
   8 C :   -0.069727
   9 H :    0.124258
  10 H :    0.125151
  11 H :    0.125706
  12 H :    0.116056
  13 H :    0.116842
  14 H :    0.130779
  15 H :    0.132159
  16 H :    0.127137
  17 H :    0.122269
  18 H :    0.128670

  Mayer bond orders larger than 0.1
B(  0-C ,  1-C ) :   0.9543 B(  0-C ,  9-H ) :   0.9319 B(  0-C , 10-H ) :   0.9357
B(  0-C , 11-H ) :   0.9363 B(  1-C ,  2-O ) :   0.9213 B(  1-C , 12-H ) :   0.9238
B(  1-C , 13-H ) :   0.9242 B(  2-O ,  3-C ) :   0.9733 B(  3-C ,  4-C ) :   0.9783
B(  3-C , 14-H ) :   0.9168 B(  3-C , 15-H ) :   0.9083 B(  4-C ,  5-C ) :   0.9725
B(  4-C ,  6-O ) :   0.8693 B(  4-C ,  7-C ) :   1.1735 B(  4-C ,  8-C ) :  -0.1668
B(  5-C ,  6-O ) :   0.9104 B(  5-C , 16-H ) :   0.9088 B(  5-C , 17-H ) :   0.9031
B(  7-C ,  8-C ) :   2.5781 B(  8-C , 18-H ) :   0.8893

MP2 TOTAL ENERGY:     -422.238224981 Eh
FINAL SINGLE POINT ENERGY      -422.238224980984

DIPOLE MOMENT
-------------
                                X             Y             Z
Electronic contribution:     -8.18524      -4.49349       0.37614
Nuclear contribution   :      8.83698       4.06155      -1.05952
                        -----------------------------------------
Total Dipole Moment    :      0.65174      -0.43194      -0.68338
                        -----------------------------------------
Magnitude (a.u.)       :      1.03844
Magnitude (Debye)      :      2.63950

                             ****ORCA TERMINATED NORMALLY****
TOTAL RUN TIME: 0 days 0 hours 15 minutes 40 seconds 795 msec
