                         Program Version 3.0.3 - RELEASE   -
|  1> ! RI-MP2 RIJK def2-TZVP def2-TZVP/C def2-TZVP/JK TIGHTSCF
|  2> % maxcore 2000
|  3> % mp2 density relaxed end
|  4> *xyz 0 1
|  5>  O       -0.3002465675     0.0613385182     0.1303494074
|  6>  C       -0.0834052509     1.2393406537     0.0154757826
|  7>  C        1.2518893746     1.8542519644    -0.1179842638
|  8>  C        1.4960411411     3.3142513409     0.2827611234
|  9>  C        1.5791593372     2.9170126390    -1.1591129527
| 10>  O        2.8110549440     2.5502843812    -1.7039833342
| 11>  C        3.3938521194     1.6111508726    -0.8130509714
| 12>  O        2.3450466362     0.9883275046    -0.0920926742
| 13>  H       -0.9042293453     1.9937293910    -0.0005149997
| 14>  H        0.6199677712     3.8829490964     0.5781243211
| 15>  H        2.3960854072     3.5396960395     0.8425919902
| 16>  H        0.8810512189     3.2810228476    -1.9021318201
| 17>  H        3.9378173359     0.8579029157    -1.3899074578
| 18>  H        4.0793311182     2.1224019553    -0.1191011308
| 19> *
| 20>
| 21>                          ****END OF INPUT****

CARTESIAN COORDINATES (ANGSTROEM)
---------------------------------
  O     -0.300247    0.061339    0.130349
  C     -0.083405    1.239341    0.015476
  C      1.251889    1.854252   -0.117984
  C      1.496041    3.314251    0.282761
  C      1.579159    2.917013   -1.159113
  O      2.811055    2.550284   -1.703983
  C      3.393852    1.611151   -0.813051
  O      2.345047    0.988328   -0.092093
  H     -0.904229    1.993729   -0.000515
  H      0.619968    3.882949    0.578124
  H      2.396085    3.539696    0.842592
  H      0.881051    3.281023   -1.902132
  H      3.937817    0.857903   -1.389907
  H      4.079331    2.122402   -0.119101

 Total Charge           Charge          ....    0
 Multiplicity           Mult            ....    1
 Number of Electrons    NEL             ....   60
 Basis Dimension        Dim             ....  284

ORBITAL ENERGIES
----------------

  NO   OCC          E(Eh)            E(eV)
   0   2.0000     -20.593301      -560.3722
   1   2.0000     -20.589316      -560.2638
   2   2.0000     -20.560357      -559.4758
   3   2.0000     -11.350004      -308.8493
   4   2.0000     -11.342772      -308.6525
   5   2.0000     -11.320495      -308.0463
   6   2.0000     -11.316105      -307.9269
   7   2.0000     -11.265820      -306.5585
   8   2.0000      -1.472372       -40.0653
   9   2.0000      -1.400683       -38.1145
  10   2.0000      -1.362652       -37.0797
  11   2.0000      -1.161055       -31.5939
  12   2.0000      -0.955351       -25.9964
  13   2.0000      -0.925709       -25.1898
  14   2.0000      -0.839883       -22.8544
  15   2.0000      -0.800145       -21.7731
  16   2.0000      -0.738334       -20.0911
  17   2.0000      -0.714003       -19.4290
  18   2.0000      -0.668965       -18.2035
  19   2.0000      -0.651456       -17.7270
  20   2.0000      -0.633680       -17.2433
  21   2.0000      -0.624620       -16.9968
  22   2.0000      -0.604669       -16.4539
  23   2.0000      -0.571319       -15.5464
  24   2.0000      -0.553439       -15.0598
  25   2.0000      -0.532200       -14.4819
  26   2.0000      -0.492822       -13.4104
  27   2.0000      -0.459985       -12.5168
  28   2.0000      -0.419831       -11.4242
  29   2.0000      -0.391750       -10.6601
  30   0.0000       0.119770         3.2591
  31   0.0000       0.137377         3.7382
  32   0.0000       0.151745         4.1292
  33   0.0000       0.177358         4.8262
  34   0.0000       0.187256         5.0955

MULLIKEN ATOMIC CHARGES
-----------------------
   0 O :   -0.246526
   1 C :    0.001734
   2 C :    0.258050
   3 C :   -0.299250
   4 C :    0.018081
   5 O :   -0.308328
   6 C :    0.109594
   7 O :   -0.288326
   8 H :    0.073088
   9 H :    0.149162
  10 H :    0.156740
  11 H :    0.148659
  12 H :    0.133145
  13 H :    0.094178
Sum of atomic charges:   -0.0000000

LOEWDIN ATOMIC CHARGES
----------------------
   0 O :    0.148144
   1 C :   -0.278107
   2 C :   -0.314519
   3 C :   -0.177460
   4 C :   -0.257623
   5 O :    0.193403
   6 C :   -0.332521
   7 O :    0.229345
   8 H :    0.118787
   9 H :    0.146681
  10 H :    0.146316
  11 H :    0.145843
  12 H :    0.123152
  13 H :    0.108560

  Mayer bond orders larger than 0.1
B(  0-O ,  1-C ) :   2.0447 B(  1-C ,  2-C ) :   0.8402 B(  1-C ,  8-H ) :   0.9690
B(  2-C ,  3-C ) :   0.8160 B(  2-C ,  4-C ) :   0.8414 B(  2-C ,  7-O ) :   0.9978
B(  3-C ,  4-C ) :   0.8607 B(  3-C ,  9-H ) :   0.9065 B(  3-C , 10-H ) :   0.8924
B(  4-C ,  5-O ) :   0.9710 B(  4-C , 11-H ) :   0.9190 B(  5-O ,  6-C ) :   0.9422
B(  6-C ,  7-O ) :   0.9505 B(  6-C , 12-H ) :   0.9217 B(  6-C , 13-H ) :   0.9261

MP2 TOTAL ENERGY:     -418.982675978 Eh
FINAL SINGLE POINT ENERGY      -418.982675978309

DIPOLE MOMENT
-------------
                                X             Y             Z
Electronic contribution:     -1.13283      -3.25194      -0.57112
Nuclear contribution   :      1.42504       4.58079       0.60260
                        -----------------------------------------
Total Dipole Moment    :      0.29222       1.32886       0.03148
                        -----------------------------------------
Magnitude (a.u.)       :      1.36097
Magnitude (Debye)      :      3.45931

                             ****ORCA TERMINATED NORMALLY****
TOTAL RUN TIME: 0 days 0 hours 10 minutes 40 seconds 675 msec
