                         Program Version 3.0.3 - RELEASE   -
|  1> ! RI-MP2 RIJK def2-TZVP def2-TZVP/C def2-TZVP/JK TIGHTSCF
|  2> % maxcore 2000
|  3> % mp2 density relaxed end
|  4> *xyz 0 1
|  5>  C        0.1016367949     1.5593160004     0.0793761098
|  6>  C        0.1191973313     0.0297383326     0.0465911151
|  7>  C        0.5818826111    -0.5250372567    -1.3157084293
|  8>  C        0.6415607504    -2.0179429101    -1.3429864602
|  9>  C       -0.1097368434    -2.9071282786    -1.9998379251
| 10>  C        0.3357661366    -4.3159555814    -1.7031640025
| 11>  N        1.4340659687    -4.0967030140    -0.7922499061
| 12>  C        1.6713539990    -2.7651446058    -0.5433970228
| 13>  O        2.5391753508    -2.3046046817     0.1727764930
| 14>  H        1.1004402092     1.9690911950    -0.1068616460
| 15>  H       -0.5715604999     1.9681796045    -0.6829635841
| 16>  H       -0.2335461682     1.9305226007     1.0528072660
| 17>  H        0.7901985004    -0.3551551763     0.8209155564
| 18>  H       -0.8816444611    -0.3602502023     0.2702071689
| 19>  H       -0.0798541433    -0.1630946097    -2.1113735871
| 20>  H        1.5856225531    -0.1325452838    -1.5239125785
| 21>  H       -0.9340837704    -2.6958039980    -2.6694288197
| 22>  H       -0.4704786918    -4.9111809211    -1.2492729595
| 23>  H        0.6502214908    -4.8426178529    -2.6164541482
| 24>  H        1.9967143718    -4.8231883907    -0.3844837402
| 25> *
| 26>
| 27>                          ****END OF INPUT****

CARTESIAN COORDINATES (ANGSTROEM)
---------------------------------
  C      0.101637    1.559316    0.079376
  C      0.119197    0.029738    0.046591
  C      0.581883   -0.525037   -1.315708
  C      0.641561   -2.017943   -1.342986
  C     -0.109737   -2.907128   -1.999838
  C      0.335766   -4.315956   -1.703164
  N      1.434066   -4.096703   -0.792250
  C      1.671354   -2.765145   -0.543397
  O      2.539175   -2.304605    0.172776
  H      1.100440    1.969091   -0.106862
  H     -0.571560    1.968180   -0.682964
  H     -0.233546    1.930523    1.052807
  H      0.790199   -0.355155    0.820916
  H     -0.881644   -0.360250    0.270207
  H     -0.079854   -0.163095   -2.111374
  H      1.585623   -0.132545   -1.523913
  H     -0.934084   -2.695804   -2.669429
  H     -0.470479   -4.911181   -1.249273
  H      0.650221   -4.842618   -2.616454
  H      1.996714   -4.823188   -0.384484

 Total Charge           Charge          ....    0
 Multiplicity           Mult            ....    1
 Number of Electrons    NEL             ....   68
 Basis Dimension        Dim             ....  345

ORBITAL ENERGIES
----------------

  NO   OCC          E(Eh)            E(eV)
   0   2.0000     -20.512490      -558.1732
   1   2.0000     -15.579314      -423.9347
   2   2.0000     -11.343255      -308.6657
   3   2.0000     -11.284302      -307.0615
   4   2.0000     -11.253880      -306.2336
   5   2.0000     -11.245095      -305.9946
   6   2.0000     -11.228410      -305.5406
   7   2.0000     -11.216480      -305.2159
   8   2.0000     -11.209529      -305.0268
   9   2.0000      -1.375233       -37.4220
  10   2.0000      -1.255383       -34.1607
  11   2.0000      -1.099221       -29.9113
  12   2.0000      -1.040159       -28.3042
  13   2.0000      -0.976554       -26.5734
  14   2.0000      -0.918760       -25.0007
  15   2.0000      -0.821608       -22.3571
  16   2.0000      -0.808387       -21.9973
  17   2.0000      -0.741571       -20.1792
  18   2.0000      -0.695303       -18.9201
  19   2.0000      -0.649400       -17.6711
  20   2.0000      -0.639300       -17.3962
  21   2.0000      -0.611083       -16.6284
  22   2.0000      -0.602236       -16.3877
  23   2.0000      -0.587079       -15.9752
  24   2.0000      -0.565873       -15.3982
  25   2.0000      -0.551005       -14.9936
  26   2.0000      -0.538494       -14.6532
  27   2.0000      -0.525386       -14.2965
  28   2.0000      -0.485340       -13.2068
  29   2.0000      -0.481663       -13.1067
  30   2.0000      -0.469667       -12.7803
  31   2.0000      -0.414821       -11.2879
  32   2.0000      -0.392934       -10.6923
  33   2.0000      -0.369307       -10.0494
  34   0.0000       0.115051         3.1307
  35   0.0000       0.133876         3.6430
  36   0.0000       0.144432         3.9302
  37   0.0000       0.161144         4.3850
  38   0.0000       0.176408         4.8003

MULLIKEN ATOMIC CHARGES
-----------------------
   0 C :   -0.390485
   1 C :   -0.211564
   2 C :   -0.240656
   3 C :    0.057171
   4 C :   -0.220518
   5 C :   -0.026108
   6 N :   -0.315826
   7 C :    0.186861
   8 O :   -0.356372
   9 H :    0.128105
  10 H :    0.117324
  11 H :    0.133461
  12 H :    0.144039
  13 H :    0.104570
  14 H :    0.120469
  15 H :    0.127803
  16 H :    0.141551
  17 H :    0.130032
  18 H :    0.130160
  19 H :    0.239983
Sum of atomic charges:    0.0000000

LOEWDIN ATOMIC CHARGES
----------------------
   0 C :   -0.320677
   1 C :   -0.282693
   2 C :   -0.222226
   3 C :   -0.131987
   4 C :   -0.112989
   5 C :   -0.258218
   6 N :    0.122330
   7 C :   -0.411661
   8 O :    0.076775
   9 H :    0.122028
  10 H :    0.118606
  11 H :    0.121379
  12 H :    0.144258
  13 H :    0.133452
  14 H :    0.143704
  15 H :    0.155057
  16 H :    0.141578
  17 H :    0.139621
  18 H :    0.139742
  19 H :    0.181922

  Mayer bond orders larger than 0.1
B(  0-C ,  1-C ) :   0.9122 B(  0-C ,  9-H ) :   0.9408 B(  0-C , 10-H ) :   0.9380
B(  0-C , 11-H ) :   0.9419 B(  1-C ,  2-C ) :   0.9207 B(  1-C , 12-H ) :   0.9312
B(  1-C , 13-H ) :   0.9312 B(  2-C ,  3-C ) :   0.9025 B(  2-C , 14-H ) :   0.9430
B(  2-C , 15-H ) :   0.9086 B(  3-C ,  4-C ) :   1.6846 B(  3-C ,  7-C ) :   0.9150
B(  4-C ,  5-C ) :   0.9861 B(  4-C , 16-H ) :   0.9209 B(  5-C ,  6-N ) :   0.9056
B(  5-C , 17-H ) :   0.9097 B(  5-C , 18-H ) :   0.9075 B(  6-N ,  7-C ) :   1.1853
B(  6-N , 19-H ) :   0.8653 B(  7-C ,  8-O ) :   1.9858

MP2 TOTAL ENERGY:     -402.509679451 Eh
FINAL SINGLE POINT ENERGY      -402.509679451340

DIPOLE MOMENT
-------------
                                X             Y             Z
Electronic contribution:      4.75739      -8.77783      -0.35163
Nuclear contribution   :     -5.76177       7.97198      -0.45293
                        -----------------------------------------
Total Dipole Moment    :     -1.00439      -0.80585      -0.80456
                        -----------------------------------------
Magnitude (a.u.)       :      1.51839
Magnitude (Debye)      :      3.85944

                             ****ORCA TERMINATED NORMALLY****
TOTAL RUN TIME: 0 days 0 hours 18 minutes 6 seconds 95 msec
