                         Program Version 3.0.3 - RELEASE   -
|  1> ! RI-MP2 RIJK def2-TZVP def2-TZVP/C def2-TZVP/JK TIGHTSCF
|  2> % maxcore 2000
|  3> % mp2 density relaxed end
|  4> *xyz 0 1
|  5>  C       -0.3083634774     1.4743494873    -0.0417696391
|  6>  C        0.0960870318     0.0104556212    -0.0706938181
|  7>  O        1.1340394816    -0.1690855654    -1.0798965386
|  8>  C        2.1455827316    -0.7999111038    -0.4452463651
|  9>  N        2.0499239908    -1.0765725967     0.7871616782
| 10>  C        0.7323533648    -0.5785884367     1.2201491957
| 11>  C        0.8594748546     0.2478456013     2.5380950651
| 12>  C        0.5274704011    -1.0405431725     3.3358305483
| 13>  C       -0.0410993320    -1.6570252061     2.0315814364
| 14>  H        0.5190209563     2.1031383766     0.2997805000
| 15>  H       -0.6052989723     1.8036139764    -1.0411935994
| 16>  H       -1.1580026773     1.6237802389     0.6313189859
| 17>  H       -0.7525402807    -0.6074072021    -0.3888882678
| 18>  H        2.9999561931    -1.0245691479    -1.0749319134
| 19>  H        1.8269626715     0.7231770149     2.7101674541
| 20>  H        0.0686250147     0.9973312833     2.6274517834
| 21>  H        1.4325080315    -1.5564499825     3.6619265085
| 22>  H       -0.1525808924    -0.9438203937     4.1846614829
| 23>  H       -1.1235436118    -1.5126811922     1.9455866598
| 24>  H        0.2028946207    -2.6960656201     1.8009461932
| 25> *
| 26>
| 27>                          ****END OF INPUT****

CARTESIAN COORDINATES (ANGSTROEM)
---------------------------------
  C     -0.308363    1.474349   -0.041770
  C      0.096087    0.010456   -0.070694
  O      1.134039   -0.169086   -1.079897
  C      2.145583   -0.799911   -0.445246
  N      2.049924   -1.076573    0.787162
  C      0.732353   -0.578588    1.220149
  C      0.859475    0.247846    2.538095
  C      0.527470   -1.040543    3.335831
  C     -0.041099   -1.657025    2.031581
  H      0.519021    2.103138    0.299780
  H     -0.605299    1.803614   -1.041194
  H     -1.158003    1.623780    0.631319
  H     -0.752540   -0.607407   -0.388888
  H      2.999956   -1.024569   -1.074932
  H      1.826963    0.723177    2.710167
  H      0.068625    0.997331    2.627452
  H      1.432508   -1.556450    3.661927
  H     -0.152581   -0.943820    4.184661
  H     -1.123544   -1.512681    1.945587
  H      0.202895   -2.696066    1.800946

 Total Charge           Charge          ....    0
 Multiplicity           Mult            ....    1
 Number of Electrons    NEL             ....   68
 Basis Dimension        Dim             ....  345

ORBITAL ENERGIES
----------------

  NO   OCC          E(Eh)            E(eV)
   0   2.0000     -20.589208      -560.2608
   1   2.0000     -15.542483      -422.9325
   2   2.0000     -11.326399      -308.2070
   3   2.0000     -11.293020      -307.2987
   4   2.0000     -11.265741      -306.5564
   5   2.0000     -11.226352      -305.4846
   6   2.0000     -11.221018      -305.3394
   7   2.0000     -11.220672      -305.3300
   8   2.0000     -11.218452      -305.2696
   9   2.0000      -1.432971       -38.9931
  10   2.0000      -1.216903       -33.1136
  11   2.0000      -1.117375       -30.4053
  12   2.0000      -1.037813       -28.2403
  13   2.0000      -0.921941       -25.0873
  14   2.0000      -0.900321       -24.4990
  15   2.0000      -0.837997       -22.8031
  16   2.0000      -0.796293       -21.6682
  17   2.0000      -0.746818       -20.3220
  18   2.0000      -0.701659       -19.0931
  19   2.0000      -0.664915       -18.0932
  20   2.0000      -0.642358       -17.4795
  21   2.0000      -0.613451       -16.6929
  22   2.0000      -0.593545       -16.1512
  23   2.0000      -0.572418       -15.5763
  24   2.0000      -0.548117       -14.9150
  25   2.0000      -0.535613       -14.5748
  26   2.0000      -0.532294       -14.4845
  27   2.0000      -0.511058       -13.9066
  28   2.0000      -0.497828       -13.5466
  29   2.0000      -0.476345       -12.9620
  30   2.0000      -0.449082       -12.2201
  31   2.0000      -0.446222       -12.1423
  32   2.0000      -0.418711       -11.3937
  33   2.0000      -0.367173        -9.9913
  34   0.0000       0.133309         3.6275
  35   0.0000       0.160572         4.3694
  36   0.0000       0.163780         4.4567
  37   0.0000       0.169087         4.6011
  38   0.0000       0.175784         4.7833

MULLIKEN ATOMIC CHARGES
-----------------------
   0 C :   -0.417981
   1 C :    0.072318
   2 O :   -0.272841
   3 C :    0.082289
   4 N :   -0.326240
   5 C :    0.236951
   6 C :   -0.267512
   7 C :   -0.211859
   8 C :   -0.270997
   9 H :    0.142343
  10 H :    0.149389
  11 H :    0.131630
  12 H :    0.106609
  13 H :    0.145707
  14 H :    0.122336
  15 H :    0.113475
  16 H :    0.123253
  17 H :    0.113354
  18 H :    0.107574
  19 H :    0.120202
Sum of atomic charges:   -0.0000000

LOEWDIN ATOMIC CHARGES
----------------------
   0 C :   -0.291488
   1 C :   -0.250323
   2 O :    0.230377
   3 C :   -0.349988
   4 N :    0.106776
   5 C :   -0.262439
   6 C :   -0.200364
   7 C :   -0.239241
   8 C :   -0.201018
   9 H :    0.130381
  10 H :    0.129587
  11 H :    0.128460
  12 H :    0.144860
  13 H :    0.133271
  14 H :    0.130213
  15 H :    0.135812
  16 H :    0.138672
  17 H :    0.121446
  18 H :    0.134934
  19 H :    0.130071

  Mayer bond orders larger than 0.1
B(  0-C ,  1-C ) :   0.9103 B(  0-C ,  9-H ) :   0.9348 B(  0-C , 10-H ) :   0.9336
B(  0-C , 11-H ) :   0.9333 B(  1-C ,  2-O ) :   0.8463 B(  1-C ,  5-C ) :   0.8862
B(  1-C , 12-H ) :   0.9254 B(  2-O ,  3-C ) :   1.0834 B(  3-C ,  4-N ) :   1.8162
B(  3-C , 13-H ) :   0.9220 B(  4-N ,  5-C ) :   0.8780 B(  5-C ,  6-C ) :   0.8858
B(  5-C ,  8-C ) :   0.8804 B(  6-C ,  7-C ) :   0.9739 B(  6-C , 14-H ) :   0.9220
B(  6-C , 15-H ) :   0.9197 B(  7-C ,  8-C ) :   0.9743 B(  7-C , 16-H ) :   0.9167
B(  7-C , 17-H ) :   0.9303 B(  8-C , 18-H ) :   0.9208 B(  8-C , 19-H ) :   0.9196

MP2 TOTAL ENERGY:     -402.466799650 Eh
FINAL SINGLE POINT ENERGY      -402.466799650452

DIPOLE MOMENT
-------------
                                X             Y             Z
Electronic contribution:      4.43651      -2.52581      -5.14051
Nuclear contribution   :     -5.03772       2.85412       5.13220
                        -----------------------------------------
Total Dipole Moment    :     -0.60120       0.32830      -0.00831
                        -----------------------------------------
Magnitude (a.u.)       :      0.68505
Magnitude (Debye)      :      1.74127

                             ****ORCA TERMINATED NORMALLY****
TOTAL RUN TIME: 0 days 0 hours 19 minutes 50 seconds 26 msec
