                         Program Version 3.0.3 - RELEASE   -
|  1> ! RI-MP2 RIJK def2-TZVP def2-TZVP/C def2-TZVP/JK TIGHTSCF
|  2> % maxcore 2000
|  3> % mp2 density relaxed end
|  4> *xyz 0 1
|  5>  C       -0.0319905759     1.3709789197     0.1931249366
|  6>  O       -0.0090607770    -0.0221462248     0.0052431956
|  7>  C       -1.2924970400    -0.6057688197     0.0648768789
|  8>  C       -1.1572731216    -2.1080448436    -0.1429909852
|  9>  C       -2.5038799987    -2.8348939241    -0.0928989306
| 10>  C       -2.3756369626    -4.3502720282    -0.2990939149
| 11>  C       -3.7086111394    -5.0538214689    -0.2330842419
| 12>  C       -3.8729754970    -6.3880523004     0.3553226324
| 13>  O       -4.2791471304    -5.2194113332     1.0699945928
| 14>  H        0.9991693627     1.7282236695     0.1333648581
| 15>  H       -0.6290550358     1.8801654151    -0.5808638395
| 16>  H       -0.4461700902     1.6458373695     1.1767529227
| 17>  H       -1.7651890622    -0.3943007586     1.0404856569
| 18>  H       -1.9489852198    -0.1680004143    -0.7083756051
| 19>  H       -0.6666397421    -2.2842053250    -1.1082960882
| 20>  H       -0.4845803482    -2.5068561626     0.6260767321
| 21>  H       -2.9912615545    -2.6539071840     0.8732574738
| 22>  H       -3.1749058908    -2.4211474279    -0.8585278503
| 23>  H       -1.9129283217    -4.5563276497    -1.2739754950
| 24>  H       -1.7132075970    -4.7743501419     0.4650365587
| 25>  H       -4.4354315401    -4.7460376339    -0.9886402268
| 26>  H       -4.6809475611    -7.0368368133     0.0192869593
| 27>  H       -3.0035397664    -6.9047736798     0.7606401195
| 28> *
| 29>
| 30>                          ****END OF INPUT****

CARTESIAN COORDINATES (ANGSTROEM)
---------------------------------
  C     -0.031991    1.370979    0.193125
  O     -0.009061   -0.022146    0.005243
  C     -1.292497   -0.605769    0.064877
  C     -1.157273   -2.108045   -0.142991
  C     -2.503880   -2.834894   -0.092899
  C     -2.375637   -4.350272   -0.299094
  C     -3.708611   -5.053821   -0.233084
  C     -3.872975   -6.388052    0.355323
  O     -4.279147   -5.219411    1.069995
  H      0.999169    1.728224    0.133365
  H     -0.629055    1.880165   -0.580864
  H     -0.446170    1.645837    1.176753
  H     -1.765189   -0.394301    1.040486
  H     -1.948985   -0.168000   -0.708376
  H     -0.666640   -2.284205   -1.108296
  H     -0.484580   -2.506856    0.626077
  H     -2.991262   -2.653907    0.873257
  H     -3.174906   -2.421147   -0.858528
  H     -1.912928   -4.556328   -1.273975
  H     -1.713208   -4.774350    0.465037
  H     -4.435432   -4.746038   -0.988640
  H     -4.680948   -7.036837    0.019287
  H     -3.003540   -6.904774    0.760640

 Total Charge           Charge          ....    0
 Multiplicity           Mult            ....    1
 Number of Electrons    NEL             ....   72
 Basis Dimension        Dim             ....  363

ORBITAL ENERGIES
----------------

  NO   OCC          E(Eh)            E(eV)
   0   2.0000     -20.563898      -559.5721
   1   2.0000     -20.552265      -559.2556
   2   2.0000     -11.284933      -307.0786
   3   2.0000     -11.280097      -306.9470
   4   2.0000     -11.271566      -306.7149
   5   2.0000     -11.268462      -306.6305
   6   2.0000     -11.229202      -305.5621
   7   2.0000     -11.223670      -305.4116
   8   2.0000     -11.218395      -305.2680
   9   2.0000      -1.407078       -38.2885
  10   2.0000      -1.373651       -37.3789
  11   2.0000      -1.083024       -29.4706
  12   2.0000      -1.013378       -27.5754
  13   2.0000      -0.939811       -25.5736
  14   2.0000      -0.905853       -24.6495
  15   2.0000      -0.860720       -23.4214
  16   2.0000      -0.809804       -22.0359
  17   2.0000      -0.796349       -21.6698
  18   2.0000      -0.694923       -18.9098
  19   2.0000      -0.673353       -18.3229
  20   2.0000      -0.652908       -17.7665
  21   2.0000      -0.647680       -17.6243
  22   2.0000      -0.626336       -17.0435
  23   2.0000      -0.622367       -16.9355
  24   2.0000      -0.576204       -15.6793
  25   2.0000      -0.548238       -14.9183
  26   2.0000      -0.539217       -14.6728
  27   2.0000      -0.535660       -14.5761
  28   2.0000      -0.502261       -13.6672
  29   2.0000      -0.494381       -13.4528
  30   2.0000      -0.488027       -13.2799
  31   2.0000      -0.472500       -12.8574
  32   2.0000      -0.470788       -12.8108
  33   2.0000      -0.440956       -11.9990
  34   2.0000      -0.426490       -11.6054
  35   2.0000      -0.420635       -11.4460
  36   0.0000       0.138992         3.7822
  37   0.0000       0.151356         4.1186
  38   0.0000       0.162772         4.4292
  39   0.0000       0.167528         4.5587
  40   0.0000       0.179550         4.8858

MULLIKEN ATOMIC CHARGES
-----------------------
   0 C :   -0.213698
   1 O :   -0.300991
   2 C :   -0.052387
   3 C :   -0.154796
   4 C :   -0.284232
   5 C :   -0.218532
   6 C :    0.059379
   7 C :   -0.074753
   8 O :   -0.341262
   9 H :    0.137803
  10 H :    0.109149
  11 H :    0.110278
  12 H :    0.089989
  13 H :    0.086565
  14 H :    0.109544
  15 H :    0.114372
  16 H :    0.131346
  17 H :    0.108298
  18 H :    0.112882
  19 H :    0.120494
  20 H :    0.121376
  21 H :    0.114532
  22 H :    0.114645
Sum of atomic charges:    0.0000000

LOEWDIN ATOMIC CHARGES
----------------------
   0 C :   -0.364496
   1 O :    0.132619
   2 C :   -0.332143
   3 C :   -0.268216
   4 C :   -0.262537
   5 C :   -0.254039
   6 C :   -0.295192
   7 C :   -0.269444
   8 O :    0.137862
   9 H :    0.112873
  10 H :    0.100284
  11 H :    0.100637
  12 H :    0.118511
  13 H :    0.117386
  14 H :    0.139453
  15 H :    0.140807
  16 H :    0.143333
  17 H :    0.137322
  18 H :    0.144534
  19 H :    0.146112
  20 H :    0.136881
  21 H :    0.118084
  22 H :    0.119370

  Mayer bond orders larger than 0.1
B(  0-C ,  1-O ) :   0.9226 B(  0-C ,  9-H ) :   0.9397 B(  0-C , 10-H ) :   0.9372
B(  0-C , 11-H ) :   0.9373 B(  1-O ,  2-C ) :   0.9644 B(  2-C ,  3-C ) :   0.9553
B(  2-C , 12-H ) :   0.9253 B(  2-C , 13-H ) :   0.9248 B(  3-C ,  4-C ) :   0.9250
B(  3-C , 14-H ) :   0.9248 B(  3-C , 15-H ) :   0.9236 B(  4-C ,  5-C ) :   0.9381
B(  4-C , 16-H ) :   0.9252 B(  4-C , 17-H ) :   0.9279 B(  5-C ,  6-C ) :   0.9244
B(  5-C , 18-H ) :   0.9281 B(  5-C , 19-H ) :   0.9315 B(  6-C ,  7-C ) :   0.9895
B(  6-C ,  8-O ) :   0.8598 B(  6-C , 20-H ) :   0.9149 B(  7-C ,  8-O ) :   0.9194
B(  7-C , 21-H ) :   0.9214 B(  7-C , 22-H ) :   0.9086

MP2 TOTAL ENERGY:     -424.683943723 Eh
FINAL SINGLE POINT ENERGY      -424.683943722590

DIPOLE MOMENT
-------------
                                X             Y             Z
Electronic contribution:     -2.59625      -4.89865       1.37749
Nuclear contribution   :      2.56573       4.89841      -1.89002
                        -----------------------------------------
Total Dipole Moment    :     -0.03053      -0.00024      -0.51253
                        -----------------------------------------
Magnitude (a.u.)       :      0.51344
Magnitude (Debye)      :      1.30507

                             ****ORCA TERMINATED NORMALLY****
TOTAL RUN TIME: 0 days 0 hours 14 minutes 46 seconds 502 msec
