                         Program Version 3.0.3 - RELEASE   -
|  1> ! RI-MP2 RIJK def2-TZVP def2-TZVP/C def2-TZVP/JK TIGHTSCF
|  2> % maxcore 2000
|  3> % mp2 density relaxed end
|  4> *xyz 0 1
|  5>  C        0.0163171575    -1.2080794801    -0.2621072631
|  6>  C       -0.0269064822    -0.0337866756    -0.0095539810
|  7>  C       -0.0414276055     1.3946024672     0.2884208965
|  8>  C        1.3425933732     2.0333013879     0.1523837311
|  9>  C        1.9137465515     2.3125323332    -1.2428614789
| 10>  C        1.0639118227     3.6018432967    -1.4752762076
| 11>  C        2.3456702758     4.3699446519    -1.7697777479
| 12>  N        2.8367737394     3.4275721373    -0.6744061073
| 13>  C        1.4602751173     3.5592098240     0.0344547530
| 14>  H        0.0426788854    -2.2466220287    -0.4811142234
| 15>  H       -0.7539458174     1.8993989489    -0.3766038355
| 16>  H       -0.4141293095     1.5515047489     1.3091627078
| 17>  H        2.0645414451     1.5817586911     0.8400648653
| 18>  H        2.2890507035     1.6170419147    -1.9952496163
| 19>  H        0.0659561005     3.6912918258    -1.9167776622
| 20>  H        2.8364562965     4.2077986002    -2.7351499763
| 21>  H        2.3930971610     5.4272161158    -1.4881808531
| 22>  H        1.3023802852     4.3352815108     0.7866109087
| 23> *
| 24>
| 25>                          ****END OF INPUT****

CARTESIAN COORDINATES (ANGSTROEM)
---------------------------------
  C      0.016317   -1.208079   -0.262107
  C     -0.026906   -0.033787   -0.009554
  C     -0.041428    1.394602    0.288421
  C      1.342593    2.033301    0.152384
  C      1.913747    2.312532   -1.242861
  C      1.063912    3.601843   -1.475276
  C      2.345670    4.369945   -1.769778
  N      2.836774    3.427572   -0.674406
  C      1.460275    3.559210    0.034455
  H      0.042679   -2.246622   -0.481114
  H     -0.753946    1.899399   -0.376604
  H     -0.414129    1.551505    1.309163
  H      2.064541    1.581759    0.840065
  H      2.289051    1.617042   -1.995250
  H      0.065956    3.691292   -1.916778
  H      2.836456    4.207799   -2.735150
  H      2.393097    5.427216   -1.488181
  H      1.302380    4.335282    0.786611

 Total Charge           Charge          ....    0
 Multiplicity           Mult            ....    1
 Number of Electrons    NEL             ....   64
 Basis Dimension        Dim             ....  333

ORBITAL ENERGIES
----------------

  NO   OCC          E(Eh)            E(eV)
   0   2.0000     -15.566714      -423.5918
   1   2.0000     -11.276126      -306.8390
   2   2.0000     -11.274147      -306.7851
   3   2.0000     -11.258341      -306.3550
   4   2.0000     -11.255162      -306.2685
   5   2.0000     -11.251168      -306.1598
   6   2.0000     -11.245125      -305.9954
   7   2.0000     -11.235814      -305.7420
   8   2.0000     -11.222054      -305.3676
   9   2.0000      -1.319482       -35.9049
  10   2.0000      -1.093366       -29.7520
  11   2.0000      -1.024274       -27.8719
  12   2.0000      -0.954741       -25.9798
  13   2.0000      -0.932250       -25.3678
  14   2.0000      -0.882793       -24.0220
  15   2.0000      -0.825438       -22.4613
  16   2.0000      -0.722479       -19.6596
  17   2.0000      -0.704523       -19.1710
  18   2.0000      -0.680024       -18.5044
  19   2.0000      -0.646555       -17.5937
  20   2.0000      -0.638268       -17.3682
  21   2.0000      -0.618631       -16.8338
  22   2.0000      -0.598170       -16.2770
  23   2.0000      -0.560363       -15.2483
  24   2.0000      -0.487227       -13.2581
  25   2.0000      -0.464688       -12.6448
  26   2.0000      -0.460888       -12.5414
  27   2.0000      -0.440694       -11.9919
  28   2.0000      -0.440029       -11.9738
  29   2.0000      -0.388681       -10.5765
  30   2.0000      -0.387777       -10.5520
  31   2.0000      -0.374129       -10.1806
  32   0.0000       0.135440         3.6855
  33   0.0000       0.154097         4.1932
  34   0.0000       0.161533         4.3955
  35   0.0000       0.168112         4.5746
  36   0.0000       0.175314         4.7705

MULLIKEN ATOMIC CHARGES
-----------------------
   0 C :   -0.153232
   1 C :   -0.035701
   2 C :   -0.348818
   3 C :   -0.017180
   4 C :   -0.095840
   5 C :   -0.122954
   6 C :   -0.149190
   7 N :   -0.201675
   8 C :   -0.090504
   9 H :    0.189979
  10 H :    0.148386
  11 H :    0.146396
  12 H :    0.117364
  13 H :    0.135023
  14 H :    0.114648
  15 H :    0.116571
  16 H :    0.115422
  17 H :    0.131305
Sum of atomic charges:    0.0000000

LOEWDIN ATOMIC CHARGES
----------------------
   0 C :   -0.105618
   1 C :   -0.107656
   2 C :   -0.225713
   3 C :   -0.185980
   4 C :   -0.151430
   5 C :   -0.177790
   6 C :   -0.242568
   7 N :    0.130255
   8 C :   -0.157364
   9 H :    0.126406
  10 H :    0.161465
  11 H :    0.160553
  12 H :    0.154736
  13 H :    0.129130
  14 H :    0.120616
  15 H :    0.122632
  16 H :    0.122059
  17 H :    0.126267

  Mayer bond orders larger than 0.1
B(  0-C ,  1-C ) :   2.6158 B(  0-C ,  9-H ) :   0.9018 B(  1-C ,  2-C ) :   1.0903
B(  2-C ,  3-C ) :   0.8844 B(  2-C , 10-H ) :   0.9231 B(  2-C , 11-H ) :   0.9246
B(  3-C ,  4-C ) :   0.9330 B(  3-C ,  8-C ) :   0.9199 B(  3-C , 12-H ) :   0.8990
B(  4-C ,  5-C ) :   0.8964 B(  4-C ,  7-N ) :   0.9117 B(  4-C , 13-H ) :   0.8875
B(  5-C ,  6-C ) :   0.9547 B(  5-C ,  8-C ) :   0.9031 B(  5-C , 14-H ) :   0.9157
B(  6-C ,  7-N ) :   0.9190 B(  6-C , 15-H ) :   0.9270 B(  6-C , 16-H ) :   0.9266
B(  7-N ,  8-C ) :   0.9119 B(  8-C , 17-H ) :   0.8873

MP2 TOTAL ENERGY:     -364.004794937 Eh
FINAL SINGLE POINT ENERGY      -364.004794937463

DIPOLE MOMENT
-------------
                                X             Y             Z
Electronic contribution:      0.52606      -1.85160       0.71605
Nuclear contribution   :     -1.16121       2.08782      -0.93530
                        -----------------------------------------
Total Dipole Moment    :     -0.63515       0.23622      -0.21925
                        -----------------------------------------
Magnitude (a.u.)       :      0.71224
Magnitude (Debye)      :      1.81036

                             ****ORCA TERMINATED NORMALLY****
TOTAL RUN TIME: 0 days 0 hours 16 minutes 17 seconds 293 msec
