                         Program Version 3.0.3 - RELEASE   -
|  1> ! RI-MP2 RIJK def2-TZVP def2-TZVP/C def2-TZVP/JK TIGHTSCF
|  2> % maxcore 2000
|  3> % mp2 density relaxed end
|  4> *xyz 0 1
|  5>  C        0.1749830269     1.5240138492    -0.0026485338
|  6>  C       -0.0304877396     0.0091228406     0.0566568114
|  7>  O        0.6829999833    -0.5429184888     1.1644244587
|  8>  C       -1.5153188327    -0.4648011852     0.0376322502
|  9>  C       -2.2695580434     0.0029578542     1.2936245992
| 10>  C       -2.2212146442     0.0537272642    -1.2265217243
| 11>  C       -1.4749987210    -2.0243414009     0.0034222184
| 12>  C       -2.7817434978    -2.6688366918     0.0113461788
| 13>  C       -3.8639813090    -3.1941897031     0.0150960756
| 14>  H        1.2462527614     1.7412577479     0.0256650076
| 15>  H       -0.2376578225     1.9590058972    -0.9162199453
| 16>  H       -0.2942596783     2.0278535165     0.8503036486
| 17>  H        0.4564481788    -0.4352158427    -0.8216776645
| 18>  H        0.4536640815    -0.0316155813     1.9475221931
| 19>  H       -2.3489393472     1.0935050223     1.3352494673
| 20>  H       -3.2836807922    -0.4047969736     1.3011936974
| 21>  H       -1.7749079321    -0.3426646922     2.2078793933
| 22>  H       -1.6412308348    -0.1755920234    -2.1284263167
| 23>  H       -3.2019764145    -0.4185111835    -1.3329379334
| 24>  H       -2.3745109615     1.1358900087    -1.1900739826
| 25>  H       -0.9279209947    -2.3410554985    -0.8949446055
| 26>  H       -0.8830901805    -2.3710457014     0.8566352084
| 27>  H       -4.8126048759    -3.6708615744     0.0199719680
| 28> *
| 29>
| 30>                          ****END OF INPUT****

CARTESIAN COORDINATES (ANGSTROEM)
---------------------------------
  C      0.174983    1.524014   -0.002649
  C     -0.030488    0.009123    0.056657
  O      0.683000   -0.542918    1.164424
  C     -1.515319   -0.464801    0.037632
  C     -2.269558    0.002958    1.293625
  C     -2.221215    0.053727   -1.226522
  C     -1.474999   -2.024341    0.003422
  C     -2.781743   -2.668837    0.011346
  C     -3.863981   -3.194190    0.015096
  H      1.246253    1.741258    0.025665
  H     -0.237658    1.959006   -0.916220
  H     -0.294260    2.027854    0.850304
  H      0.456448   -0.435216   -0.821678
  H      0.453664   -0.031616    1.947522
  H     -2.348939    1.093505    1.335249
  H     -3.283681   -0.404797    1.301194
  H     -1.774908   -0.342665    2.207879
  H     -1.641231   -0.175592   -2.128426
  H     -3.201976   -0.418511   -1.332938
  H     -2.374511    1.135890   -1.190074
  H     -0.927921   -2.341055   -0.894945
  H     -0.883090   -2.371046    0.856635
  H     -4.812605   -3.670862    0.019972

 Total Charge           Charge          ....    0
 Multiplicity           Mult            ....    1
 Number of Electrons    NEL             ....   70
 Basis Dimension        Dim             ....  363

ORBITAL ENERGIES
----------------

  NO   OCC          E(Eh)            E(eV)
   0   2.0000     -20.555752      -559.3504
   1   2.0000     -11.283373      -307.0362
   2   2.0000     -11.245657      -306.0099
   3   2.0000     -11.241776      -305.9043
   4   2.0000     -11.229559      -305.5718
   5   2.0000     -11.221918      -305.3639
   6   2.0000     -11.215715      -305.1951
   7   2.0000     -11.215394      -305.1864
   8   2.0000     -11.214662      -305.1665
   9   2.0000      -1.363045       -37.0903
  10   2.0000      -1.118006       -30.4225
  11   2.0000      -1.037402       -28.2291
  12   2.0000      -0.994519       -27.0622
  13   2.0000      -0.944213       -25.6933
  14   2.0000      -0.936266       -25.4771
  15   2.0000      -0.866847       -23.5881
  16   2.0000      -0.757290       -20.6069
  17   2.0000      -0.712034       -19.3754
  18   2.0000      -0.669489       -18.2177
  19   2.0000      -0.648269       -17.6403
  20   2.0000      -0.643321       -17.5057
  21   2.0000      -0.615406       -16.7461
  22   2.0000      -0.607145       -16.5212
  23   2.0000      -0.583184       -15.8692
  24   2.0000      -0.549701       -14.9581
  25   2.0000      -0.543609       -14.7924
  26   2.0000      -0.535458       -14.5706
  27   2.0000      -0.526099       -14.3159
  28   2.0000      -0.515564       -14.0292
  29   2.0000      -0.496630       -13.5140
  30   2.0000      -0.473812       -12.8931
  31   2.0000      -0.463342       -12.6082
  32   2.0000      -0.429143       -11.6776
  33   2.0000      -0.379740       -10.3332
  34   2.0000      -0.377701       -10.2778
  35   0.0000       0.126135         3.4323
  36   0.0000       0.152193         4.1414
  37   0.0000       0.164688         4.4814
  38   0.0000       0.167835         4.5670
  39   0.0000       0.175549         4.7769

MULLIKEN ATOMIC CHARGES
-----------------------
   0 C :   -0.434466
   1 C :    0.110264
   2 O :   -0.474970
   3 C :    0.111118
   4 C :   -0.493013
   5 C :   -0.458631
   6 C :   -0.367395
   7 C :    0.003978
   8 C :   -0.156545
   9 H :    0.153678
  10 H :    0.139684
  11 H :    0.125968
  12 H :    0.093857
  13 H :    0.313687
  14 H :    0.136451
  15 H :    0.160129
  16 H :    0.123401
  17 H :    0.131094
  18 H :    0.157977
  19 H :    0.135505
  20 H :    0.135453
  21 H :    0.167096
  22 H :    0.185680
Sum of atomic charges:    0.0000000

LOEWDIN ATOMIC CHARGES
----------------------
   0 C :   -0.301083
   1 C :   -0.329482
   2 O :   -0.016859
   3 C :   -0.302170
   4 C :   -0.270509
   5 C :   -0.264194
   6 C :   -0.209259
   7 C :   -0.112515
   8 C :   -0.115443
   9 H :    0.128724
  10 H :    0.127881
  11 H :    0.121961
  12 H :    0.148592
  13 H :    0.172074
  14 H :    0.123765
  15 H :    0.136353
  16 H :    0.123546
  17 H :    0.127770
  18 H :    0.134797
  19 H :    0.124219
  20 H :    0.161316
  21 H :    0.165420
  22 H :    0.125097

  Mayer bond orders larger than 0.1
B(  0-C ,  1-C ) :   0.9270 B(  0-C ,  9-H ) :   0.9429 B(  0-C , 10-H ) :   0.9345
B(  0-C , 11-H ) :   0.9242 B(  1-C ,  2-O ) :   0.8967 B(  1-C ,  3-C ) :   0.8888
B(  1-C , 12-H ) :   0.9147 B(  2-O , 13-H ) :   0.8439 B(  3-C ,  4-C ) :   0.8876
B(  3-C ,  5-C ) :   0.8994 B(  3-C ,  6-C ) :   0.8792 B(  4-C , 14-H ) :   0.9364
B(  4-C , 15-H ) :   0.9318 B(  4-C , 16-H ) :   0.9361 B(  5-C , 17-H ) :   0.9310
B(  5-C , 18-H ) :   0.9314 B(  5-C , 19-H ) :   0.9369 B(  6-C ,  7-C ) :   1.0658
B(  6-C ,  8-C ) :  -0.1075 B(  6-C , 20-H ) :   0.9176 B(  6-C , 21-H ) :   0.9303
B(  7-C ,  8-C ) :   2.6195 B(  8-C , 22-H ) :   0.8985

MP2 TOTAL ENERGY:     -387.590740733 Eh
FINAL SINGLE POINT ENERGY      -387.590740733076

DIPOLE MOMENT
-------------
                                X             Y             Z
Electronic contribution:     -0.19542      -6.82473       1.12982
Nuclear contribution   :      0.02011       7.49885      -1.11004
                        -----------------------------------------
Total Dipole Moment    :     -0.17532       0.67412       0.01978
                        -----------------------------------------
Magnitude (a.u.)       :      0.69682
Magnitude (Debye)      :      1.77118

                             ****ORCA TERMINATED NORMALLY****
TOTAL RUN TIME: 0 days 0 hours 25 minutes 52 seconds 446 msec
