                         Program Version 3.0.3 - RELEASE   -
|  1> ! RI-MP2 RIJK def2-TZVP def2-TZVP/C def2-TZVP/JK TIGHTSCF
|  2> % maxcore 2000
|  3> % mp2 density relaxed end
|  4> *xyz 0 1
|  5>  C        0.2010903874     1.2864727087     0.0941660189
|  6>  O       -0.4214585181     0.0889306909    -0.3829873791
|  7>  C        0.2850700453    -0.6059429653    -1.2894070898
|  8>  C        0.6438313929    -1.9180154330    -1.3014001558
|  9>  N        0.4806946122    -2.9126634931    -0.3104705495
| 10>  C        1.3412215736    -2.1174469795    -2.5471676876
| 11>  N        1.8195197134    -3.3690353906    -2.9543802660
| 12>  C        1.3537600700    -0.9129161057    -3.1801609000
| 13>  O        0.7037518298     0.0319741780    -2.4108976744
| 14>  H        1.1694440617     1.0627853284     0.5581492743
| 15>  H        0.3462959508     2.0034770597    -0.7192750359
| 16>  H       -0.4765851674     1.7080630322     0.8383467834
| 17>  H        0.0699794603    -2.5131880918     0.5263432619
| 18>  H       -0.1375420829    -3.6534366615    -0.6302466844
| 19>  H        2.1701066607    -3.8966808645    -2.1623095390
| 20>  H        2.5352195655    -3.3102532712    -3.6670564538
| 21>  H        1.7538954548    -0.5638834418    -4.1158127132
| 22> *
| 23>
| 24>                          ****END OF INPUT****

CARTESIAN COORDINATES (ANGSTROEM)
---------------------------------
  C      0.201090    1.286473    0.094166
  O     -0.421459    0.088931   -0.382987
  C      0.285070   -0.605943   -1.289407
  C      0.643831   -1.918015   -1.301400
  N      0.480695   -2.912663   -0.310471
  C      1.341222   -2.117447   -2.547168
  N      1.819520   -3.369035   -2.954380
  C      1.353760   -0.912916   -3.180161
  O      0.703752    0.031974   -2.410898
  H      1.169444    1.062785    0.558149
  H      0.346296    2.003477   -0.719275
  H     -0.476585    1.708063    0.838347
  H      0.069979   -2.513188    0.526343
  H     -0.137542   -3.653437   -0.630247
  H      2.170107   -3.896681   -2.162310
  H      2.535220   -3.310253   -3.667056
  H      1.753895   -0.563883   -4.115813

 Total Charge           Charge          ....    0
 Multiplicity           Mult            ....    1
 Number of Electrons    NEL             ....   68
 Basis Dimension        Dim             ....  327

ORBITAL ENERGIES
----------------

  NO   OCC          E(Eh)            E(eV)
   0   2.0000     -20.604795      -560.6850
   1   2.0000     -20.589460      -560.2677
   2   2.0000     -15.561596      -423.4526
   3   2.0000     -15.558834      -423.3774
   4   2.0000     -11.329844      -308.3007
   5   2.0000     -11.284962      -307.0794
   6   2.0000     -11.262455      -306.4670
   7   2.0000     -11.257099      -306.3212
   8   2.0000     -11.247987      -306.0733
   9   2.0000      -1.462845       -39.8060
  10   2.0000      -1.392182       -37.8832
  11   2.0000      -1.223181       -33.2845
  12   2.0000      -1.184812       -32.2404
  13   2.0000      -1.032987       -28.1090
  14   2.0000      -0.990776       -26.9604
  15   2.0000      -0.926277       -25.2053
  16   2.0000      -0.793786       -21.6000
  17   2.0000      -0.780636       -21.2422
  18   2.0000      -0.727559       -19.7979
  19   2.0000      -0.678561       -18.4646
  20   2.0000      -0.671516       -18.2729
  21   2.0000      -0.663526       -18.0555
  22   2.0000      -0.646210       -17.5843
  23   2.0000      -0.625043       -17.0083
  24   2.0000      -0.604722       -16.4553
  25   2.0000      -0.601049       -16.3554
  26   2.0000      -0.573126       -15.5955
  27   2.0000      -0.532609       -14.4930
  28   2.0000      -0.525055       -14.2875
  29   2.0000      -0.497456       -13.5365
  30   2.0000      -0.480922       -13.0865
  31   2.0000      -0.451588       -12.2883
  32   2.0000      -0.329805        -8.9745
  33   2.0000      -0.281098        -7.6491
  34   0.0000       0.131431         3.5764
  35   0.0000       0.149139         4.0583
  36   0.0000       0.155848         4.2408
  37   0.0000       0.179733         4.8908
  38   0.0000       0.192170         5.2292

MULLIKEN ATOMIC CHARGES
-----------------------
   0 C :   -0.199972
   1 O :   -0.316899
   2 C :    0.277060
   3 C :    0.024006
   4 N :   -0.565885
   5 C :    0.099792
   6 N :   -0.536311
   7 C :   -0.113023
   8 O :   -0.223796
   9 H :    0.122036
  10 H :    0.143807
  11 H :    0.142242
  12 H :    0.248480
  13 H :    0.260819
  14 H :    0.261126
  15 H :    0.240410
  16 H :    0.136108
Sum of atomic charges:   -0.0000000

LOEWDIN ATOMIC CHARGES
----------------------
   0 C :   -0.314645
   1 O :    0.213244
   2 C :   -0.391428
   3 C :   -0.250891
   4 N :   -0.109603
   5 C :   -0.271157
   6 N :   -0.090687
   7 C :   -0.252224
   8 O :    0.328911
   9 H :    0.107951
  10 H :    0.110862
  11 H :    0.114123
  12 H :    0.169073
  13 H :    0.169749
  14 H :    0.172201
  15 H :    0.166710
  16 H :    0.127810

  Mayer bond orders larger than 0.1
B(  0-C ,  1-O ) :   0.8495 B(  0-C ,  9-H ) :   0.9280 B(  0-C , 10-H ) :   0.9395
B(  0-C , 11-H ) :   0.9376 B(  1-O ,  2-C ) :   1.0762 B(  2-C ,  3-C ) :   1.5191
B(  2-C ,  8-O ) :   1.0557 B(  3-C ,  4-N ) :   0.9769 B(  3-C ,  5-C ) :   1.1906
B(  4-N , 12-H ) :   0.8840 B(  4-N , 13-H ) :   0.8722 B(  5-C ,  6-N ) :   0.9947
B(  5-C ,  7-C ) :   1.5558 B(  6-N , 14-H ) :   0.8677 B(  6-N , 15-H ) :   0.8835
B(  7-C ,  8-O ) :   0.9792 B(  7-C , 16-H ) :   0.9447

MP2 TOTAL ENERGY:     -454.405093491 Eh
FINAL SINGLE POINT ENERGY      -454.405093490771

DIPOLE MOMENT
-------------
                                X             Y             Z
Electronic contribution:     -1.26098       0.03478      -2.51208
Nuclear contribution   :      1.67803       0.00138       2.84761
                        -----------------------------------------
Total Dipole Moment    :      0.41705       0.03616       0.33553
                        -----------------------------------------
Magnitude (a.u.)       :      0.53649
Magnitude (Debye)      :      1.36365

                             ****ORCA TERMINATED NORMALLY****
TOTAL RUN TIME: 0 days 0 hours 15 minutes 17 seconds 887 msec
