                         Program Version 3.0.3 - RELEASE   -
|  1> ! RI-MP2 RIJK def2-TZVP def2-TZVP/C def2-TZVP/JK TIGHTSCF
|  2> % maxcore 2000
|  3> % mp2 density relaxed end
|  4> *xyz 0 1
|  5>  C       -0.0052043661     1.4959960064    -0.1961917598
|  6>  C       -0.0575661339     0.0045008877     0.1609622099
|  7>  C       -1.4313106860    -0.5634495888     0.0561989864
|  8>  C       -2.3215712674    -0.9379954561    -1.1068179731
|  9>  C       -3.5271705419    -0.4676070969    -0.2590349371
| 10>  C       -3.2037228738    -1.4590291393     0.7991895232
| 11>  C       -1.9851783678    -1.9651171097    -0.0092644198
| 12>  N       -2.6311807919    -0.0681166804     0.8835909327
| 13>  H        1.0045256093     1.8957319140    -0.0647665860
| 14>  H       -0.3052651803     1.6616951174    -1.2358274190
| 15>  H       -0.6851059338     2.0658582935     0.4437549318
| 16>  H        0.6067844837    -0.5714919812    -0.4965638765
| 17>  H        0.3110700487    -0.1459445482     1.1842849102
| 18>  H       -2.1244219877    -0.9886340511    -2.1683912884
| 19>  H       -4.4386574586     0.0700657298    -0.4920434867
| 20>  H       -3.7995633529    -1.8869386790     1.5967272157
| 21>  H       -1.4895664498    -2.9213414479    -0.1014739834
| 22> *
| 23>
| 24>                          ****END OF INPUT****

CARTESIAN COORDINATES (ANGSTROEM)
---------------------------------
  C     -0.005204    1.495996   -0.196192
  C     -0.057566    0.004501    0.160962
  C     -1.431311   -0.563450    0.056199
  C     -2.321571   -0.937995   -1.106818
  C     -3.527171   -0.467607   -0.259035
  C     -3.203723   -1.459029    0.799190
  C     -1.985178   -1.965117   -0.009264
  N     -2.631181   -0.068117    0.883591
  H      1.004526    1.895732   -0.064767
  H     -0.305265    1.661695   -1.235827
  H     -0.685106    2.065858    0.443755
  H      0.606784   -0.571492   -0.496564
  H      0.311070   -0.145945    1.184285
  H     -2.124422   -0.988634   -2.168391
  H     -4.438657    0.070066   -0.492043
  H     -3.799563   -1.886939    1.596727
  H     -1.489566   -2.921341   -0.101474

 Total Charge           Charge          ....    0
 Multiplicity           Mult            ....    1
 Number of Electrons    NEL             ....   58
 Basis Dimension        Dim             ....  302

ORBITAL ENERGIES
----------------

  NO   OCC          E(Eh)            E(eV)
   0   2.0000     -15.554919      -423.2709
   1   2.0000     -11.268246      -306.6246
   2   2.0000     -11.265156      -306.5405
   3   2.0000     -11.264422      -306.5205
   4   2.0000     -11.241286      -305.8910
   5   2.0000     -11.240709      -305.8752
   6   2.0000     -11.228715      -305.5489
   7   2.0000     -11.211389      -305.0774
   8   2.0000      -1.338160       -36.4132
   9   2.0000      -1.071892       -29.1677
  10   2.0000      -1.030846       -28.0507
  11   2.0000      -0.919817       -25.0295
  12   2.0000      -0.894637       -24.3443
  13   2.0000      -0.845852       -23.0168
  14   2.0000      -0.729251       -19.8439
  15   2.0000      -0.710913       -19.3449
  16   2.0000      -0.686180       -18.6719
  17   2.0000      -0.634939       -17.2776
  18   2.0000      -0.601801       -16.3758
  19   2.0000      -0.584346       -15.9009
  20   2.0000      -0.569758       -15.5039
  21   2.0000      -0.527576       -14.3561
  22   2.0000      -0.510861       -13.9012
  23   2.0000      -0.493542       -13.4300
  24   2.0000      -0.486812       -13.2468
  25   2.0000      -0.442042       -12.0286
  26   2.0000      -0.419101       -11.4043
  27   2.0000      -0.361771        -9.8443
  28   2.0000      -0.332827        -9.0567
  29   0.0000       0.142344         3.8734
  30   0.0000       0.162761         4.4290
  31   0.0000       0.172428         4.6920
  32   0.0000       0.176389         4.7998
  33   0.0000       0.187781         5.1098

MULLIKEN ATOMIC CHARGES
-----------------------
   0 C :   -0.405521
   1 C :   -0.189445
   2 C :    0.081778
   3 C :   -0.164658
   4 C :   -0.065156
   5 C :   -0.103851
   6 C :   -0.144420
   7 N :   -0.221850
   8 H :    0.132653
   9 H :    0.121731
  10 H :    0.147417
  11 H :    0.110371
  12 H :    0.117570
  13 H :    0.150560
  14 H :    0.141938
  15 H :    0.142357
  16 H :    0.148527
Sum of atomic charges:   -0.0000000

LOEWDIN ATOMIC CHARGES
----------------------
   0 C :   -0.307777
   1 C :   -0.258606
   2 C :   -0.195201
   3 C :   -0.123581
   4 C :   -0.166978
   5 C :   -0.166059
   6 C :   -0.122694
   7 N :    0.148889
   8 H :    0.120321
   9 H :    0.121127
  10 H :    0.128070
  11 H :    0.147220
  12 H :    0.146830
  13 H :    0.135281
  14 H :    0.128834
  15 H :    0.128914
  16 H :    0.135411

  Mayer bond orders larger than 0.1
B(  0-C ,  1-C ) :   0.9285 B(  0-C ,  8-H ) :   0.9386 B(  0-C ,  9-H ) :   0.9359
B(  0-C , 10-H ) :   0.9353 B(  1-C ,  2-C ) :   0.9101 B(  1-C , 11-H ) :   0.9258
B(  1-C , 12-H ) :   0.9253 B(  2-C ,  3-C ) :   0.8936 B(  2-C ,  6-C ) :   0.8436
B(  2-C ,  7-N ) :   0.9029 B(  3-C ,  4-C ) :   0.9019 B(  3-C ,  6-C ) :   0.8553
B(  3-C , 13-H ) :   0.9048 B(  4-C ,  5-C ) :   0.9659 B(  4-C ,  7-N ) :   0.8882
B(  4-C , 14-H ) :   0.9089 B(  5-C ,  6-C ) :   0.8890 B(  5-C ,  7-N ) :   0.9403
B(  5-C , 15-H ) :   0.9054 B(  6-C , 16-H ) :   0.9088

MP2 TOTAL ENERGY:     -326.008651033 Eh
FINAL SINGLE POINT ENERGY      -326.008651032820

DIPOLE MOMENT
-------------
                                X             Y             Z
Electronic contribution:     -5.19449      -3.53161       1.08386
Nuclear contribution   :      5.38249       3.05645      -1.59119
                        -----------------------------------------
Total Dipole Moment    :      0.18800      -0.47516      -0.50732
                        -----------------------------------------
Magnitude (a.u.)       :      0.72007
Magnitude (Debye)      :      1.83026

                             ****ORCA TERMINATED NORMALLY****
TOTAL RUN TIME: 0 days 0 hours 13 minutes 43 seconds 587 msec
