                         Program Version 3.0.3 - RELEASE   -
|  1> ! RI-MP2 RIJK def2-TZVP def2-TZVP/C def2-TZVP/JK TIGHTSCF
|  2> % maxcore 2000
|  3> % mp2 density relaxed end
|  4> *xyz 0 1
|  5>  C        0.0769153896     1.5525686158    -0.1658440528
|  6>  C       -0.1066772738     0.0381924618     0.0100906920
|  7>  C        0.6448232070    -0.4887166621     1.2004950278
|  8>  C        2.1143195493    -0.9744583736     1.1728013535
|  9>  O        3.1423285588    -0.4922697223     1.9637177781
| 10>  C        1.0630872326    -1.8871716261     1.6772869457
| 11>  O        0.7916042984    -1.5228990140     3.0617994167
| 12>  C        0.2820277599    -0.2860167025     2.6331718390
| 13>  N       -0.3201282127     0.6009018992     3.2795702925
| 14>  H        1.1309691069     1.8046536899    -0.3194397828
| 15>  H       -0.4894647692     1.9135058745    -1.0294317683
| 16>  H       -0.2711616664     2.0853162020     0.7230055361
| 17>  H       -1.1726549902    -0.1939765921     0.1228452481
| 18>  H        0.2333094698    -0.4899770202    -0.8891307765
| 19>  H        2.4548877454    -1.1616521736     0.1574346933
| 20>  H        2.9048461984    -0.6745890482     2.8822774999
| 21>  H        0.7828099291    -2.8872824160     1.3717727579
| 22>  H       -0.4156978331     0.3520300175     4.2652605599
| 23> *
| 24>
| 25>                          ****END OF INPUT****

CARTESIAN COORDINATES (ANGSTROEM)
---------------------------------
  C      0.076915    1.552569   -0.165844
  C     -0.106677    0.038192    0.010091
  C      0.644823   -0.488717    1.200495
  C      2.114320   -0.974458    1.172801
  O      3.142329   -0.492270    1.963718
  C      1.063087   -1.887172    1.677287
  O      0.791604   -1.522899    3.061799
  C      0.282028   -0.286017    2.633172
  N     -0.320128    0.600902    3.279570
  H      1.130969    1.804654   -0.319440
  H     -0.489465    1.913506   -1.029432
  H     -0.271162    2.085316    0.723006
  H     -1.172655   -0.193977    0.122845
  H      0.233309   -0.489977   -0.889131
  H      2.454888   -1.161652    0.157435
  H      2.904846   -0.674589    2.882277
  H      0.782810   -2.887282    1.371773
  H     -0.415698    0.352030    4.265261

 Total Charge           Charge          ....    0
 Multiplicity           Mult            ....    1
 Number of Electrons    NEL             ....   68
 Basis Dimension        Dim             ....  333

ORBITAL ENERGIES
----------------

  NO   OCC          E(Eh)            E(eV)
   0   2.0000     -20.604424      -560.6749
   1   2.0000     -20.577950      -559.9545
   2   2.0000     -15.548353      -423.0922
   3   2.0000     -11.350804      -308.8711
   4   2.0000     -11.317922      -307.9763
   5   2.0000     -11.316813      -307.9461
   6   2.0000     -11.265594      -306.5524
   7   2.0000     -11.243634      -305.9548
   8   2.0000     -11.217378      -305.2404
   9   2.0000      -1.453834       -39.5608
  10   2.0000      -1.385677       -37.7062
  11   2.0000      -1.208689       -32.8901
  12   2.0000      -1.148549       -31.2536
  13   2.0000      -1.036294       -28.1990
  14   2.0000      -0.916213       -24.9314
  15   2.0000      -0.860317       -23.4104
  16   2.0000      -0.848478       -23.0883
  17   2.0000      -0.753365       -20.5001
  18   2.0000      -0.707271       -19.2458
  19   2.0000      -0.702586       -19.1183
  20   2.0000      -0.694865       -18.9082
  21   2.0000      -0.623930       -16.9780
  22   2.0000      -0.615722       -16.7547
  23   2.0000      -0.596665       -16.2361
  24   2.0000      -0.584002       -15.8915
  25   2.0000      -0.563869       -15.3437
  26   2.0000      -0.556789       -15.1510
  27   2.0000      -0.530946       -14.4478
  28   2.0000      -0.509728       -13.8704
  29   2.0000      -0.500975       -13.6322
  30   2.0000      -0.454121       -12.3573
  31   2.0000      -0.440800       -11.9948
  32   2.0000      -0.415218       -11.2987
  33   2.0000      -0.387569       -10.5463
  34   0.0000       0.135075         3.6756
  35   0.0000       0.145471         3.9585
  36   0.0000       0.158505         4.3131
  37   0.0000       0.166602         4.5335
  38   0.0000       0.170752         4.6464

MULLIKEN ATOMIC CHARGES
-----------------------
   0 C :   -0.405999
   1 C :   -0.208901
   2 C :    0.018223
   3 C :    0.020270
   4 O :   -0.442412
   5 C :    0.067519
   6 O :   -0.302563
   7 C :    0.112270
   8 N :   -0.367197
   9 H :    0.129981
  10 H :    0.131924
  11 H :    0.159199
  12 H :    0.123073
  13 H :    0.110077
  14 H :    0.130242
  15 H :    0.339549
  16 H :    0.151488
  17 H :    0.233255
Sum of atomic charges:   -0.0000000

LOEWDIN ATOMIC CHARGES
----------------------
   0 C :   -0.302658
   1 C :   -0.248514
   2 C :   -0.154773
   3 C :   -0.276390
   4 O :    0.020176
   5 C :   -0.180581
   6 O :    0.205760
   7 C :   -0.352377
   8 N :   -0.034098
   9 H :    0.124089
  10 H :    0.120954
  11 H :    0.130920
  12 H :    0.146723
  13 H :    0.143010
  14 H :    0.156409
  15 H :    0.189347
  16 H :    0.136061
  17 H :    0.175942

  Mayer bond orders larger than 0.1
B(  0-C ,  1-C ) :   0.9323 B(  0-C ,  9-H ) :   0.9347 B(  0-C , 10-H ) :   0.9362
B(  0-C , 11-H ) :   0.9322 B(  1-C ,  2-C ) :   0.9155 B(  1-C , 12-H ) :   0.9324
B(  1-C , 13-H ) :   0.9221 B(  2-C ,  3-C ) :   0.7962 B(  2-C ,  5-C ) :   0.8292
B(  2-C ,  7-C ) :   0.9327 B(  3-C ,  4-O ) :   1.0263 B(  3-C ,  5-C ) :   0.9156
B(  3-C , 14-H ) :   0.9500 B(  4-O , 15-H ) :   0.8180 B(  5-C ,  6-O ) :   0.8919
B(  5-C , 16-H ) :   0.9038 B(  6-O ,  7-C ) :   1.0022 B(  7-C ,  8-N ) :   2.0422
B(  8-N , 17-H ) :   0.8400

MP2 TOTAL ENERGY:     -438.331044993 Eh
FINAL SINGLE POINT ENERGY      -438.331044993279

DIPOLE MOMENT
-------------
                                X             Y             Z
Electronic contribution:      2.43827      -4.59058       6.73097
Nuclear contribution   :     -2.61299       3.85219      -7.21690
                        -----------------------------------------
Total Dipole Moment    :     -0.17472      -0.73839      -0.48593
                        -----------------------------------------
Magnitude (a.u.)       :      0.90104
Magnitude (Debye)      :      2.29027

                             ****ORCA TERMINATED NORMALLY****
TOTAL RUN TIME: 0 days 0 hours 16 minutes 21 seconds 645 msec
