                         Program Version 3.0.3 - RELEASE   -
|  1> ! RI-MP2 RIJK def2-TZVP def2-TZVP/C def2-TZVP/JK TIGHTSCF
|  2> % maxcore 2000
|  3> % mp2 density relaxed end
|  4> *xyz 0 1
|  5>  C       -0.3567748893     1.4954524282    -0.0399660501
|  6>  O       -0.4810364448     0.2599545670     0.6267694174
|  7>  C       -1.3420277630    -0.6396427800    -0.0182327158
|  8>  C       -0.8782558243    -1.3617498728    -1.3136992857
|  9>  C       -1.5399358193    -2.6492182307    -0.7485585079
| 10>  C       -1.4998840144    -2.0191046941     0.6649471083
| 11>  C       -0.3774563212    -2.4048310271     1.6707958931
| 12>  C       -1.3800984723    -2.1452809639     2.8269879316
| 13>  C       -2.5366604174    -2.2218240028     1.7929708657
| 14>  H        0.3144774584     2.1210501411     0.5534760869
| 15>  H        0.0677543490     1.3783268490    -1.0482034499
| 16>  H       -1.3285906803     2.0057560041    -0.1338250603
| 17>  H       -2.3302912315    -0.1725247915    -0.1716756037
| 18>  H       -1.2280819340    -0.9799754184    -2.2754003181
| 19>  H        0.2121984851    -1.4447215076    -1.3327366147
| 20>  H       -2.5645827610    -2.7789556287    -1.1115290354
| 21>  H       -1.0023103219    -3.5915081127    -0.8804979398
| 22>  H       -0.1158456426    -3.4642539196     1.5816126549
| 23>  H        0.5332703975    -1.8045319335     1.6512354030
| 24>  H       -1.3941044767    -2.8585942995     3.6543778211
| 25>  H       -1.2666168509    -1.1367942367     3.2318207270
| 26>  H       -3.3404339580    -1.4824155690     1.8661074969
| 27>  H       -2.9863476172    -3.2196043811     1.7518039954
| 28> *
| 29>
| 30>                          ****END OF INPUT****

CARTESIAN COORDINATES (ANGSTROEM)
---------------------------------
  C     -0.356775    1.495452   -0.039966
  O     -0.481036    0.259955    0.626769
  C     -1.342028   -0.639643   -0.018233
  C     -0.878256   -1.361750   -1.313699
  C     -1.539936   -2.649218   -0.748559
  C     -1.499884   -2.019105    0.664947
  C     -0.377456   -2.404831    1.670796
  C     -1.380098   -2.145281    2.826988
  C     -2.536660   -2.221824    1.792971
  H      0.314477    2.121050    0.553476
  H      0.067754    1.378327   -1.048203
  H     -1.328591    2.005756   -0.133825
  H     -2.330291   -0.172525   -0.171676
  H     -1.228082   -0.979975   -2.275400
  H      0.212198   -1.444722   -1.332737
  H     -2.564583   -2.778956   -1.111529
  H     -1.002310   -3.591508   -0.880498
  H     -0.115846   -3.464254    1.581613
  H      0.533270   -1.804532    1.651235
  H     -1.394104   -2.858594    3.654378
  H     -1.266617   -1.136794    3.231821
  H     -3.340434   -1.482416    1.866107
  H     -2.986348   -3.219604    1.751804

 Total Charge           Charge          ....    0
 Multiplicity           Mult            ....    1
 Number of Electrons    NEL             ....   70
 Basis Dimension        Dim             ....  363

ORBITAL ENERGIES
----------------

  NO   OCC          E(Eh)            E(eV)
   0   2.0000     -20.552171      -559.2530
   1   2.0000     -11.272105      -306.7296
   2   2.0000     -11.269226      -306.6512
   3   2.0000     -11.224060      -305.4222
   4   2.0000     -11.217194      -305.2354
   5   2.0000     -11.216619      -305.2197
   6   2.0000     -11.211171      -305.0715
   7   2.0000     -11.209896      -305.0368
   8   2.0000     -11.208391      -304.9958
   9   2.0000      -1.375301       -37.4238
  10   2.0000      -1.147808       -31.2335
  11   2.0000      -1.066401       -29.0183
  12   2.0000      -0.943132       -25.6639
  13   2.0000      -0.891341       -24.2546
  14   2.0000      -0.877216       -23.8703
  15   2.0000      -0.854825       -23.2610
  16   2.0000      -0.787570       -21.4309
  17   2.0000      -0.716125       -19.4868
  18   2.0000      -0.667446       -18.1621
  19   2.0000      -0.659972       -17.9587
  20   2.0000      -0.643177       -17.5017
  21   2.0000      -0.618422       -16.8281
  22   2.0000      -0.599160       -16.3040
  23   2.0000      -0.570526       -15.5248
  24   2.0000      -0.550315       -14.9748
  25   2.0000      -0.527393       -14.3511
  26   2.0000      -0.512681       -13.9508
  27   2.0000      -0.508569       -13.8389
  28   2.0000      -0.486515       -13.2388
  29   2.0000      -0.474478       -12.9112
  30   2.0000      -0.457218       -12.4415
  31   2.0000      -0.426121       -11.5953
  32   2.0000      -0.421848       -11.4791
  33   2.0000      -0.409124       -11.1328
  34   2.0000      -0.389784       -10.6066
  35   0.0000       0.139974         3.8089
  36   0.0000       0.153143         4.1672
  37   0.0000       0.158301         4.3076
  38   0.0000       0.167670         4.5625
  39   0.0000       0.185857         5.0574

MULLIKEN ATOMIC CHARGES
-----------------------
   0 C :   -0.230782
   1 O :   -0.299351
   2 C :   -0.003914
   3 C :   -0.237792
   4 C :   -0.233755
   5 C :    0.145997
   6 C :   -0.243413
   7 C :   -0.230667
   8 C :   -0.239408
   9 H :    0.139707
  10 H :    0.117115
  11 H :    0.110621
  12 H :    0.067231
  13 H :    0.119926
  14 H :    0.116280
  15 H :    0.114133
  16 H :    0.115306
  17 H :    0.106025
  18 H :    0.123337
  19 H :    0.109552
  20 H :    0.116518
  21 H :    0.108219
  22 H :    0.109115
Sum of atomic charges:   -0.0000000

LOEWDIN ATOMIC CHARGES
----------------------
   0 C :   -0.355075
   1 O :    0.162766
   2 C :   -0.279169
   3 C :   -0.225132
   4 C :   -0.204558
   5 C :   -0.213042
   6 C :   -0.196176
   7 C :   -0.238857
   8 C :   -0.207346
   9 H :    0.113111
  10 H :    0.103133
  11 H :    0.101858
  12 H :    0.136203
  13 H :    0.121402
  14 H :    0.139436
  15 H :    0.136031
  16 H :    0.127293
  17 H :    0.133142
  18 H :    0.130179
  19 H :    0.119570
  20 H :    0.134905
  21 H :    0.125001
  22 H :    0.135326

  Mayer bond orders larger than 0.1
B(  0-C ,  1-O ) :   0.9173 B(  0-C ,  9-H ) :   0.9406 B(  0-C , 10-H ) :   0.9362
B(  0-C , 11-H ) :   0.9348 B(  1-O ,  2-C ) :   1.0017 B(  2-C ,  3-C ) :   0.9448
B(  2-C ,  5-C ) :   0.9178 B(  2-C , 12-H ) :   0.9311 B(  3-C ,  4-C ) :   0.9514
B(  3-C , 13-H ) :   0.9249 B(  3-C , 14-H ) :   0.9094 B(  4-C ,  5-C ) :   0.8834
B(  4-C , 15-H ) :   0.9211 B(  4-C , 16-H ) :   0.9178 B(  5-C ,  6-C ) :   0.9099
B(  5-C ,  8-C ) :   0.8890 B(  6-C ,  7-C ) :   0.9698 B(  6-C , 17-H ) :   0.9224
B(  6-C , 18-H ) :   0.9103 B(  7-C ,  8-C ) :   0.9698 B(  7-C , 19-H ) :   0.9283
B(  7-C , 20-H ) :   0.9171 B(  8-C , 21-H ) :   0.9216 B(  8-C , 22-H ) :   0.9207

MP2 TOTAL ENERGY:     -387.580108734 Eh
FINAL SINGLE POINT ENERGY      -387.580108734122

DIPOLE MOMENT
-------------
                                X             Y             Z
Electronic contribution:      0.34640       0.16142       0.59524
Nuclear contribution   :     -0.48988       0.00022      -0.97434
                        -----------------------------------------
Total Dipole Moment    :     -0.14348       0.16164      -0.37910
                        -----------------------------------------
Magnitude (a.u.)       :      0.43638
Magnitude (Debye)      :      1.10919

                             ****ORCA TERMINATED NORMALLY****
TOTAL RUN TIME: 0 days 0 hours 20 minutes 50 seconds 908 msec
