                         Program Version 3.0.3 - RELEASE   -
|  1> ! RI-MP2 RIJK def2-TZVP def2-TZVP/C def2-TZVP/JK TIGHTSCF
|  2> % maxcore 2000
|  3> % mp2 density relaxed end
|  4> *xyz 0 1
|  5>  C        0.0681623388     1.4773963617     0.0796468087
|  6>  C       -0.0393512198    -0.0454194540    -0.0404891227
|  7>  C        0.7493135125    -0.6145031479    -1.2617132962
|  8>  N        1.9811403820    -0.9926044417    -0.6064233549
|  9>  C        1.8088392557    -1.1893566174     0.7455245947
| 10>  O        2.5539508573    -1.6985083949     1.5285166243
| 11>  O        0.5883143032    -0.6569590155     1.1001235248
| 12>  C       -1.4488169420    -0.4656676941    -0.0734688658
| 13>  N       -2.5608596460    -0.7702660907    -0.1349851870
| 14>  H        1.1224280375     1.7652472282     0.0545782765
| 15>  H       -0.4570262580     1.9649395630    -0.7460699902
| 16>  H       -0.3690230979     1.8089880739     1.0233492181
| 17>  H        0.2270320682    -1.4650374505    -1.7156073549
| 18>  H        0.8986242698     0.1559136815    -2.0227442453
| 19>  H        2.6876600787    -1.5411644315    -1.0690471402
| 20> *
| 21>
| 22>                          ****END OF INPUT****

CARTESIAN COORDINATES (ANGSTROEM)
---------------------------------
  C      0.068162    1.477396    0.079647
  C     -0.039351   -0.045419   -0.040489
  C      0.749314   -0.614503   -1.261713
  N      1.981140   -0.992604   -0.606423
  C      1.808839   -1.189357    0.745525
  O      2.553951   -1.698508    1.528517
  O      0.588314   -0.656959    1.100124
  C     -1.448817   -0.465668   -0.073469
  N     -2.560860   -0.770266   -0.134985
  H      1.122428    1.765247    0.054578
  H     -0.457026    1.964940   -0.746070
  H     -0.369023    1.808988    1.023349
  H      0.227032   -1.465037   -1.715607
  H      0.898624    0.155914   -2.022744
  H      2.687660   -1.541164   -1.069047

 Total Charge           Charge          ....    0
 Multiplicity           Mult            ....    1
 Number of Electrons    NEL             ....   66
 Basis Dimension        Dim             ....  315

ORBITAL ENERGIES
----------------

  NO   OCC          E(Eh)            E(eV)
   0   2.0000     -20.630544      -561.3856
   1   2.0000     -20.547630      -559.1294
   2   2.0000     -15.618877      -425.0112
   3   2.0000     -15.596320      -424.3975
   4   2.0000     -11.423377      -310.8459
   5   2.0000     -11.379436      -309.6502
   6   2.0000     -11.320663      -308.0509
   7   2.0000     -11.292563      -307.2863
   8   2.0000     -11.263962      -306.5080
   9   2.0000      -1.495144       -40.6849
  10   2.0000      -1.391100       -37.8538
  11   2.0000      -1.269865       -34.5548
  12   2.0000      -1.241576       -33.7850
  13   2.0000      -1.112184       -30.2641
  14   2.0000      -0.984110       -26.7790
  15   2.0000      -0.915834       -24.9211
  16   2.0000      -0.858219       -23.3533
  17   2.0000      -0.787903       -21.4399
  18   2.0000      -0.718280       -19.5454
  19   2.0000      -0.704334       -19.1659
  20   2.0000      -0.662998       -18.0411
  21   2.0000      -0.648125       -17.6364
  22   2.0000      -0.639705       -17.4073
  23   2.0000      -0.613343       -16.6899
  24   2.0000      -0.594660       -16.1815
  25   2.0000      -0.587361       -15.9829
  26   2.0000      -0.575934       -15.6720
  27   2.0000      -0.549316       -14.9476
  28   2.0000      -0.500784       -13.6270
  29   2.0000      -0.492458       -13.4005
  30   2.0000      -0.476055       -12.9541
  31   2.0000      -0.473544       -12.8858
  32   2.0000      -0.436960       -11.8903
  33   0.0000       0.107249         2.9184
  34   0.0000       0.128196         3.4884
  35   0.0000       0.150551         4.0967
  36   0.0000       0.152402         4.1471
  37   0.0000       0.166442         4.5291

MULLIKEN ATOMIC CHARGES
-----------------------
   0 C :   -0.426545
   1 C :    0.338365
   2 C :   -0.150308
   3 N :   -0.365873
   4 C :    0.336830
   5 O :   -0.297987
   6 O :   -0.240761
   7 C :   -0.186696
   8 N :   -0.041665
   9 H :    0.161012
  10 H :    0.148792
  11 H :    0.165349
  12 H :    0.156770
  13 H :    0.143919
  14 H :    0.258797
Sum of atomic charges:   -0.0000000

LOEWDIN ATOMIC CHARGES
----------------------
   0 C :   -0.239724
   1 C :   -0.329898
   2 C :   -0.213510
   3 N :    0.091917
   4 C :   -0.561301
   5 O :    0.122104
   6 O :    0.289698
   7 C :   -0.140421
   8 N :    0.089515
   9 H :    0.138873
  10 H :    0.137286
  11 H :    0.140880
  12 H :    0.139508
  13 H :    0.141013
  14 H :    0.194058

  Mayer bond orders larger than 0.1
B(  0-C ,  1-C ) :   0.9279 B(  0-C ,  9-H ) :   0.9222 B(  0-C , 10-H ) :   0.9211
B(  0-C , 11-H ) :   0.9280 B(  1-C ,  2-C ) :   0.8643 B(  1-C ,  6-O ) :   0.9081
B(  1-C ,  7-C ) :   0.8979 B(  2-C ,  3-N ) :   0.9148 B(  2-C , 12-H ) :   0.9315
B(  2-C , 13-H ) :   0.9199 B(  3-N ,  4-C ) :   1.1096 B(  3-N , 14-H ) :   0.8671
B(  4-C ,  5-O ) :   2.0510 B(  4-C ,  6-O ) :   1.0439 B(  7-C ,  8-N ) :   2.8451

MP2 TOTAL ENERGY:     -453.274628114 Eh
FINAL SINGLE POINT ENERGY      -453.274628114353

DIPOLE MOMENT
-------------
                                X             Y             Z
Electronic contribution:     -0.53597      -4.73721       3.37675
Nuclear contribution   :      1.20306       5.61277      -5.08778
                        -----------------------------------------
Total Dipole Moment    :      0.66710       0.87556      -1.71103
                        -----------------------------------------
Magnitude (a.u.)       :      2.03452
Magnitude (Debye)      :      5.17133

                             ****ORCA TERMINATED NORMALLY****
TOTAL RUN TIME: 0 days 0 hours 15 minutes 43 seconds 872 msec
