                         Program Version 3.0.3 - RELEASE   -
|  1> ! RI-MP2 RIJK def2-TZVP def2-TZVP/C def2-TZVP/JK TIGHTSCF
|  2> % maxcore 2000
|  3> % mp2 density relaxed end
|  4> *xyz 0 1
|  5>  C       -0.0618764459     1.4800192286     0.0013096939
|  6>  N       -0.0286013622     0.0180837654     0.0184004592
|  7>  C        0.0307183293    -0.6254814279     1.2622394778
|  8>  O        0.0622306203    -0.0359918764     2.3136184690
|  9>  C       -0.0595082394    -0.7636821747    -1.1426463641
| 10>  O       -0.0240484067    -1.9754595719    -1.1070574269
| 11>  C       -0.1433426984    -0.0049849663    -2.4590336006
| 12>  C       -0.2178812050    -0.9496972290    -3.6503345508
| 13>  O       -0.9644469638    -0.7745088634    -4.5759082859
| 14>  H        0.7889480418     1.8901125666    -0.5490118568
| 15>  H       -0.9894884537     1.8517342396    -0.4418769832
| 16>  H       -0.0066612525     1.8061496168     1.0393167631
| 17>  H        0.0447419057    -1.7165474808     1.1548151638
| 18>  H       -1.0023324554     0.6715822745    -2.4862686505
| 19>  H        0.7543559019     0.6193540122    -2.5759851675
| 20>  H        0.4861052342    -1.8030374533    -3.6136292805
| 21> *
| 22>
| 23>                          ****END OF INPUT****

CARTESIAN COORDINATES (ANGSTROEM)
---------------------------------
  C     -0.061876    1.480019    0.001310
  N     -0.028601    0.018084    0.018400
  C      0.030718   -0.625481    1.262239
  O      0.062231   -0.035992    2.313618
  C     -0.059508   -0.763682   -1.142646
  O     -0.024048   -1.975460   -1.107057
  C     -0.143343   -0.004985   -2.459034
  C     -0.217881   -0.949697   -3.650335
  O     -0.964447   -0.774509   -4.575908
  H      0.788948    1.890113   -0.549012
  H     -0.989488    1.851734   -0.441877
  H     -0.006661    1.806150    1.039317
  H      0.044742   -1.716547    1.154815
  H     -1.002332    0.671582   -2.486269
  H      0.754356    0.619354   -2.575985
  H      0.486105   -1.803037   -3.613629

 Total Charge           Charge          ....    0
 Multiplicity           Mult            ....    1
 Number of Electrons    NEL             ....   68
 Basis Dimension        Dim             ....  321

ORBITAL ENERGIES
----------------

  NO   OCC          E(Eh)            E(eV)
   0   2.0000     -20.575127      -559.8777
   1   2.0000     -20.568202      -559.6892
   2   2.0000     -20.562184      -559.5255
   3   2.0000     -15.636707      -425.4964
   4   2.0000     -11.402175      -310.2690
   5   2.0000     -11.375271      -309.5369
   6   2.0000     -11.351614      -308.8931
   7   2.0000     -11.291425      -307.2553
   8   2.0000     -11.283988      -307.0529
   9   2.0000      -1.441064       -39.2133
  10   2.0000      -1.416353       -38.5409
  11   2.0000      -1.413125       -38.4531
  12   2.0000      -1.279099       -34.8060
  13   2.0000      -1.077894       -29.3310
  14   2.0000      -0.997713       -27.1492
  15   2.0000      -0.911363       -24.7994
  16   2.0000      -0.819172       -22.2908
  17   2.0000      -0.782545       -21.2941
  18   2.0000      -0.740150       -20.1405
  19   2.0000      -0.710031       -19.3209
  20   2.0000      -0.695643       -18.9294
  21   2.0000      -0.671282       -18.2665
  22   2.0000      -0.652691       -17.7606
  23   2.0000      -0.643336       -17.5061
  24   2.0000      -0.623831       -16.9753
  25   2.0000      -0.609105       -16.5746
  26   2.0000      -0.587513       -15.9870
  27   2.0000      -0.578142       -15.7320
  28   2.0000      -0.548860       -14.9353
  29   2.0000      -0.528957       -14.3936
  30   2.0000      -0.491286       -13.3686
  31   2.0000      -0.457127       -12.4391
  32   2.0000      -0.434798       -11.8315
  33   2.0000      -0.427650       -11.6369
  34   0.0000       0.103542         2.8175
  35   0.0000       0.108369         2.9489
  36   0.0000       0.120874         3.2892
  37   0.0000       0.158585         4.3153
  38   0.0000       0.167719         4.5639

MULLIKEN ATOMIC CHARGES
-----------------------
   0 C :   -0.349280
   1 N :   -0.095882
   2 C :    0.162999
   3 O :   -0.312843
   4 C :    0.217602
   5 O :   -0.335070
   6 C :   -0.201617
   7 C :    0.105272
   8 O :   -0.255634
   9 H :    0.144403
  10 H :    0.151530
  11 H :    0.196538
  12 H :    0.152462
  13 H :    0.152711
  14 H :    0.158127
  15 H :    0.108681
Sum of atomic charges:    0.0000000

LOEWDIN ATOMIC CHARGES
----------------------
   0 C :   -0.274453
   1 N :    0.173049
   2 C :   -0.340981
   3 O :    0.105167
   4 C :   -0.389983
   5 O :    0.124040
   6 C :   -0.228852
   7 C :   -0.276027
   8 O :    0.142571
   9 H :    0.121222
  10 H :    0.122443
  11 H :    0.139804
  12 H :    0.133492
  13 H :    0.160757
  14 H :    0.166781
  15 H :    0.120970

  Mayer bond orders larger than 0.1
B(  0-C ,  1-N ) :   0.8542 B(  0-C ,  9-H ) :   0.9303 B(  0-C , 10-H ) :   0.9318
B(  0-C , 11-H ) :   0.9135 B(  1-N ,  2-C ) :   0.9961 B(  1-N ,  4-C ) :   1.0944
B(  2-C ,  3-O ) :   1.9239 B(  2-C , 12-H ) :   0.9192 B(  4-C ,  5-O ) :   1.8989
B(  4-C ,  6-C ) :   0.9093 B(  6-C ,  7-C ) :   0.8696 B(  6-C , 13-H ) :   0.8796
B(  6-C , 14-H ) :   0.8951 B(  7-C ,  8-O ) :   1.9986 B(  7-C , 15-H ) :   0.9357

MP2 TOTAL ENERGY:     -474.318359411 Eh
FINAL SINGLE POINT ENERGY      -474.318359410876

DIPOLE MOMENT
-------------
                                X             Y             Z
Electronic contribution:     -0.60876      -4.69758       0.09640
Nuclear contribution   :      1.11141       5.70464      -0.23862
                        -----------------------------------------
Total Dipole Moment    :      0.50265       1.00706      -0.14222
                        -----------------------------------------
Magnitude (a.u.)       :      1.13449
Magnitude (Debye)      :      2.88363

                             ****ORCA TERMINATED NORMALLY****
TOTAL RUN TIME: 0 days 0 hours 15 minutes 21 seconds 867 msec
