                         Program Version 3.0.3 - RELEASE   -
|  1> ! RI-MP2 RIJK def2-TZVP def2-TZVP/C def2-TZVP/JK TIGHTSCF
|  2> % maxcore 2000
|  3> % mp2 density relaxed end
|  4> *xyz 0 1
|  5>  C       -0.0978692865     1.4863907543    -0.0840323578
|  6>  C        0.0978965820    -0.0132393653    -0.0697886149
|  7>  C        1.4816816145    -0.6175203661    -0.1689221930
|  8>  C        0.7157665344    -0.6888888012     1.1160643994
|  9>  C        1.0492196365    -0.1217272315     2.4917585198
| 10>  O        0.5457381294    -1.3254243113     3.1298674473
| 11>  C        0.2333794408    -1.9391394556     1.8658430294
| 12>  C       -1.1886067811    -2.2740804220     1.7246872117
| 13>  N       -2.3053805194    -2.5316314356     1.5757689384
| 14>  H        0.7231837984     2.0010306341     0.4266095187
| 15>  H       -0.1360634191     1.8645385495    -1.1106502550
| 16>  H       -1.0315121984     1.7700770276     0.4128410263
| 17>  H       -0.6950832378    -0.5791870441    -0.5535607518
| 18>  H        1.6124352509    -1.5314467110    -0.7398498039
| 19>  H        2.3321918483     0.0575606639    -0.2055677582
| 20>  H        2.1134611889     0.0296961205     2.7072841966
| 21>  H        0.4833275945     0.7647221381     2.8014041782
| 22>  H        0.8283795139    -2.8464792343     1.6977822988
| 23> *
| 24>
| 25>                          ****END OF INPUT****

CARTESIAN COORDINATES (ANGSTROEM)
---------------------------------
  C     -0.097869    1.486391   -0.084032
  C      0.097897   -0.013239   -0.069789
  C      1.481682   -0.617520   -0.168922
  C      0.715767   -0.688889    1.116064
  C      1.049220   -0.121727    2.491759
  O      0.545738   -1.325424    3.129867
  C      0.233379   -1.939139    1.865843
  C     -1.188607   -2.274080    1.724687
  N     -2.305381   -2.531631    1.575769
  H      0.723184    2.001031    0.426610
  H     -0.136063    1.864539   -1.110650
  H     -1.031512    1.770077    0.412841
  H     -0.695083   -0.579187   -0.553561
  H      1.612435   -1.531447   -0.739850
  H      2.332192    0.057561   -0.205568
  H      2.113461    0.029696    2.707284
  H      0.483328    0.764722    2.801404
  H      0.828380   -2.846479    1.697782

 Total Charge           Charge          ....    0
 Multiplicity           Mult            ....    1
 Number of Electrons    NEL             ....   66
 Basis Dimension        Dim             ....  333

ORBITAL ENERGIES
----------------

  NO   OCC          E(Eh)            E(eV)
   0   2.0000     -20.581293      -560.0455
   1   2.0000     -15.577807      -423.8937
   2   2.0000     -11.341763      -308.6251
   3   2.0000     -11.302246      -307.5497
   4   2.0000     -11.275150      -306.8124
   5   2.0000     -11.268934      -306.6433
   6   2.0000     -11.255578      -306.2799
   7   2.0000     -11.249170      -306.1055
   8   2.0000     -11.235925      -305.7451
   9   2.0000      -1.411946       -38.4210
  10   2.0000      -1.221975       -33.2516
  11   2.0000      -1.176672       -32.0189
  12   2.0000      -1.013159       -27.5694
  13   2.0000      -0.986176       -26.8352
  14   2.0000      -0.951655       -25.8958
  15   2.0000      -0.821293       -22.3485
  16   2.0000      -0.791723       -21.5439
  17   2.0000      -0.722524       -19.6609
  18   2.0000      -0.704672       -19.1751
  19   2.0000      -0.667793       -18.1716
  20   2.0000      -0.629200       -17.1214
  21   2.0000      -0.611639       -16.6435
  22   2.0000      -0.589945       -16.0532
  23   2.0000      -0.568464       -15.4687
  24   2.0000      -0.565479       -15.3875
  25   2.0000      -0.544401       -14.8139
  26   2.0000      -0.527390       -14.3510
  27   2.0000      -0.508077       -13.8255
  28   2.0000      -0.483678       -13.1616
  29   2.0000      -0.468355       -12.7446
  30   2.0000      -0.453357       -12.3365
  31   2.0000      -0.426060       -11.5937
  32   2.0000      -0.417759       -11.3678
  33   0.0000       0.123553         3.3620
  34   0.0000       0.132270         3.5993
  35   0.0000       0.144659         3.9364
  36   0.0000       0.156402         4.2559
  37   0.0000       0.170382         4.6363

MULLIKEN ATOMIC CHARGES
-----------------------
   0 C :   -0.435567
   1 C :   -0.022727
   2 C :   -0.290189
   3 C :   -0.100105
   4 C :   -0.019136
   5 O :   -0.315640
   6 C :    0.269003
   7 C :   -0.229611
   8 N :   -0.052661
   9 H :    0.126985
  10 H :    0.144802
  11 H :    0.149051
  12 H :    0.142965
  13 H :    0.142733
  14 H :    0.136456
  15 H :    0.108260
  16 H :    0.114093
  17 H :    0.131288
Sum of atomic charges:   -0.0000000

LOEWDIN ATOMIC CHARGES
----------------------
   0 C :   -0.286367
   1 C :   -0.206686
   2 C :   -0.180947
   3 C :   -0.193131
   4 C :   -0.210067
   5 O :    0.160247
   6 C :   -0.235353
   7 C :   -0.156967
   8 N :    0.074519
   9 H :    0.127362
  10 H :    0.129778
  11 H :    0.130418
  12 H :    0.157892
  13 H :    0.139069
  14 H :    0.140355
  15 H :    0.123662
  16 H :    0.125830
  17 H :    0.160387

  Mayer bond orders larger than 0.1
B(  0-C ,  1-C ) :   0.8992 B(  0-C ,  9-H ) :   0.9322 B(  0-C , 10-H ) :   0.9378
B(  0-C , 11-H ) :   0.9405 B(  1-C ,  2-C ) :   0.9021 B(  1-C ,  3-C ) :   0.8437
B(  1-C , 12-H ) :   0.9155 B(  2-C ,  3-C ) :   0.8714 B(  2-C , 13-H ) :   0.9204
B(  2-C , 14-H ) :   0.9187 B(  3-C ,  4-C ) :   0.9719 B(  3-C ,  6-C ) :   0.9028
B(  4-C ,  5-O ) :   0.9393 B(  4-C , 15-H ) :   0.9114 B(  4-C , 16-H ) :   0.9119
B(  5-O ,  6-C ) :   0.9806 B(  6-C ,  7-C ) :   0.8868 B(  6-C , 17-H ) :   0.9039
B(  7-C ,  8-N ) :   2.8435

MP2 TOTAL ENERGY:     -401.225819909 Eh
FINAL SINGLE POINT ENERGY      -401.225819908905

DIPOLE MOMENT
-------------
                                X             Y             Z
Electronic contribution:     -3.74111      -7.80298       5.14817
Nuclear contribution   :      5.13658       8.63141      -5.85529
                        -----------------------------------------
Total Dipole Moment    :      1.39547       0.82843      -0.70712
                        -----------------------------------------
Magnitude (a.u.)       :      1.77021
Magnitude (Debye)      :      4.49952

                             ****ORCA TERMINATED NORMALLY****
TOTAL RUN TIME: 0 days 0 hours 17 minutes 28 seconds 583 msec
