                         Program Version 3.0.3 - RELEASE   -
|  1> ! RI-MP2 RIJK def2-TZVP def2-TZVP/C def2-TZVP/JK TIGHTSCF
|  2> % maxcore 2000
|  3> % mp2 density relaxed end
|  4> *xyz 0 1
|  5>  O        0.0918709042     0.0006754974    -0.4119925526
|  6>  C        0.0632954083     1.1817870594    -0.1455887023
|  7>  N        1.1242951563     1.9000417240     0.3280600041
|  8>  C        2.5689421875     1.5998129599     0.1819651594
|  9>  C        2.8200786035     1.9667849864    -1.3003322526
| 10>  C        2.4683832948     3.4511320930    -1.0779676982
| 11>  O        3.5279000096     3.8553199600    -0.1602230954
| 12>  C        2.8411011490     3.0625980740     0.8004142783
| 13>  C        1.4616439688     3.3074067090     0.1690434477
| 14>  H       -0.8574008702     1.7988579016    -0.2006194721
| 15>  H        2.9411340049     0.6692486515     0.5988880364
| 16>  H        3.8591773357     1.8697191381    -1.6187418568
| 17>  H        2.1601082844     1.4129452176    -1.9697475141
| 18>  H        2.3234897088     4.1306028547    -1.9149040115
| 19>  H        3.1313462021     3.1891629582     1.8404574733
| 20>  H        0.7514072823     4.0922925951     0.4175858764
| 21> *
| 22>
| 23>                          ****END OF INPUT****

CARTESIAN COORDINATES (ANGSTROEM)
---------------------------------
  O      0.091871    0.000675   -0.411993
  C      0.063295    1.181787   -0.145589
  N      1.124295    1.900042    0.328060
  C      2.568942    1.599813    0.181965
  C      2.820079    1.966785   -1.300332
  C      2.468383    3.451132   -1.077968
  O      3.527900    3.855320   -0.160223
  C      2.841101    3.062598    0.800414
  C      1.461644    3.307407    0.169043
  H     -0.857401    1.798858   -0.200619
  H      2.941134    0.669249    0.598888
  H      3.859177    1.869719   -1.618742
  H      2.160108    1.412945   -1.969748
  H      2.323490    4.130603   -1.914904
  H      3.131346    3.189163    1.840457
  H      0.751407    4.092293    0.417586

 Total Charge           Charge          ....    0
 Multiplicity           Mult            ....    1
 Number of Electrons    NEL             ....   66
 Basis Dimension        Dim             ....  321

ORBITAL ENERGIES
----------------

  NO   OCC          E(Eh)            E(eV)
   0   2.0000     -20.570939      -559.7637
   1   2.0000     -20.534525      -558.7728
   2   2.0000     -15.594130      -424.3378
   3   2.0000     -11.354602      -308.9744
   4   2.0000     -11.310827      -307.7832
   5   2.0000     -11.310182      -307.7657
   6   2.0000     -11.297528      -307.4214
   7   2.0000     -11.291897      -307.2681
   8   2.0000     -11.242429      -305.9220
   9   2.0000      -1.426020       -38.8040
  10   2.0000      -1.390662       -37.8418
  11   2.0000      -1.282889       -34.9092
  12   2.0000      -1.066528       -29.0217
  13   2.0000      -0.999448       -27.1964
  14   2.0000      -0.962772       -26.1984
  15   2.0000      -0.843792       -22.9608
  16   2.0000      -0.791933       -21.5496
  17   2.0000      -0.746932       -20.3251
  18   2.0000      -0.743755       -20.2386
  19   2.0000      -0.717461       -19.5231
  20   2.0000      -0.670052       -18.2330
  21   2.0000      -0.648378       -17.6433
  22   2.0000      -0.630081       -17.1454
  23   2.0000      -0.574399       -15.6302
  24   2.0000      -0.556383       -15.1400
  25   2.0000      -0.534717       -14.5504
  26   2.0000      -0.530168       -14.4266
  27   2.0000      -0.519773       -14.1437
  28   2.0000      -0.501544       -13.6477
  29   2.0000      -0.472655       -12.8616
  30   2.0000      -0.438216       -11.9245
  31   2.0000      -0.424216       -11.5435
  32   2.0000      -0.384906       -10.4738
  33   0.0000       0.143723         3.9109
  34   0.0000       0.144094         3.9210
  35   0.0000       0.160892         4.3781
  36   0.0000       0.164917         4.4876
  37   0.0000       0.174370         4.7448

MULLIKEN ATOMIC CHARGES
-----------------------
   0 O :   -0.332268
   1 C :    0.127451
   2 N :   -0.089957
   3 C :   -0.020165
   4 C :   -0.287639
   5 C :    0.053920
   6 O :   -0.310574
   7 C :   -0.006125
   8 C :   -0.108606
   9 H :    0.082045
  10 H :    0.162252
  11 H :    0.136385
  12 H :    0.151159
  13 H :    0.144891
  14 H :    0.141525
  15 H :    0.155705
Sum of atomic charges:   -0.0000000

LOEWDIN ATOMIC CHARGES
----------------------
   0 O :    0.077858
   1 C :   -0.413062
   2 N :    0.204596
   3 C :   -0.166919
   4 C :   -0.210590
   5 C :   -0.216211
   6 O :    0.172557
   7 C :   -0.221285
   8 C :   -0.175101
   9 H :    0.112503
  10 H :    0.140241
  11 H :    0.145371
  12 H :    0.145423
  13 H :    0.131826
  14 H :    0.134052
  15 H :    0.138740

  Mayer bond orders larger than 0.1
B(  0-O ,  1-C ) :   1.9262 B(  1-C ,  2-N ) :   1.0938 B(  1-C ,  9-H ) :   0.9300
B(  2-N ,  3-C ) :   0.8826 B(  2-N ,  8-C ) :   0.9362 B(  3-C ,  4-C ) :   0.9101
B(  3-C ,  7-C ) :   0.8605 B(  3-C , 10-H ) :   0.9052 B(  4-C ,  5-C ) :   0.9324
B(  4-C , 11-H ) :   0.9289 B(  4-C , 12-H ) :   0.9287 B(  5-C ,  6-O ) :   0.8803
B(  5-C ,  8-C ) :   0.8426 B(  5-C , 13-H ) :   0.9154 B(  6-O ,  7-C ) :   0.9939
B(  7-C ,  8-C ) :   0.9454 B(  7-C , 14-H ) :   0.9079 B(  8-C , 15-H ) :   0.9030

MP2 TOTAL ENERGY:     -437.130285399 Eh
FINAL SINGLE POINT ENERGY      -437.130285399234

DIPOLE MOMENT
-------------
                                X             Y             Z
Electronic contribution:     -1.00048      -0.42575       1.45809
Nuclear contribution   :      1.08984       1.36337      -1.41588
                        -----------------------------------------
Total Dipole Moment    :      0.08936       0.93763       0.04221
                        -----------------------------------------
Magnitude (a.u.)       :      0.94282
Magnitude (Debye)      :      2.39646

                             ****ORCA TERMINATED NORMALLY****
TOTAL RUN TIME: 0 days 0 hours 17 minutes 14 seconds 585 msec
