                         Program Version 3.0.3 - RELEASE   -
|  1> ! RI-MP2 RIJK def2-TZVP def2-TZVP/C def2-TZVP/JK TIGHTSCF
|  2> % maxcore 2000
|  3> % mp2 density relaxed end
|  4> *xyz 0 1
|  5>  C        0.0637080898     1.5149708864     0.0267118189
|  6>  C       -0.0799424649     0.0239084246    -0.0304177855
|  7>  C       -0.9312855929    -0.7807061565     0.8627354873
|  8>  N        0.5362956022    -0.9094206240     1.0242232971
|  9>  C        1.0767237247    -1.7683680343    -0.1153214592
| 10>  C        0.4973428892    -0.8374002092    -1.1712871901
| 11>  O       -0.3677685360    -1.9031599337    -1.6746368798
| 12>  C        0.1395030459    -2.8092219161    -0.7520641460
| 13>  O       -0.1540591190    -3.9521239172    -0.6309395744
| 14>  H        1.0679947029     1.8312181956    -0.2749103410
| 15>  H       -0.6589202403     1.9963696355    -0.6422520351
| 16>  H       -0.1142612530     1.8791756426     1.0420388617
| 17>  H       -1.3773988189    -0.2572363450     1.7028813762
| 18>  H       -1.5226075877    -1.6107476447     0.4887987463
| 19>  H        2.1254747610    -2.0197352951     0.0206297275
| 20>  H        1.0532517568    -0.3476053088    -1.9674454440
| 21> *
| 22>
| 23>                          ****END OF INPUT****

CARTESIAN COORDINATES (ANGSTROEM)
---------------------------------
  C      0.063708    1.514971    0.026712
  C     -0.079942    0.023908   -0.030418
  C     -0.931286   -0.780706    0.862735
  N      0.536296   -0.909421    1.024223
  C      1.076724   -1.768368   -0.115321
  C      0.497343   -0.837400   -1.171287
  O     -0.367769   -1.903160   -1.674637
  C      0.139503   -2.809222   -0.752064
  O     -0.154059   -3.952124   -0.630940
  H      1.067995    1.831218   -0.274910
  H     -0.658920    1.996370   -0.642252
  H     -0.114261    1.879176    1.042039
  H     -1.377399   -0.257236    1.702881
  H     -1.522608   -1.610748    0.488799
  H      2.125475   -2.019735    0.020630
  H      1.053252   -0.347605   -1.967445

 Total Charge           Charge          ....    0
 Multiplicity           Mult            ....    1
 Number of Electrons    NEL             ....   66
 Basis Dimension        Dim             ....  321

ORBITAL ENERGIES
----------------

  NO   OCC          E(Eh)            E(eV)
   0   2.0000     -20.610303      -560.8348
   1   2.0000     -20.565997      -559.6292
   2   2.0000     -15.592317      -424.2885
   3   2.0000     -11.393267      -310.0266
   4   2.0000     -11.322411      -308.0985
   5   2.0000     -11.299133      -307.4650
   6   2.0000     -11.296587      -307.3958
   7   2.0000     -11.280507      -306.9582
   8   2.0000     -11.245383      -306.0024
   9   2.0000      -1.474346       -40.1190
  10   2.0000      -1.393594       -37.9216
  11   2.0000      -1.304314       -35.4922
  12   2.0000      -1.049253       -28.5516
  13   2.0000      -1.023011       -27.8375
  14   2.0000      -0.931928       -25.3590
  15   2.0000      -0.886176       -24.1141
  16   2.0000      -0.798236       -21.7211
  17   2.0000      -0.732254       -19.9257
  18   2.0000      -0.725686       -19.7469
  19   2.0000      -0.709911       -19.3176
  20   2.0000      -0.690181       -18.7808
  21   2.0000      -0.623175       -16.9575
  22   2.0000      -0.609876       -16.5956
  23   2.0000      -0.597686       -16.2639
  24   2.0000      -0.589418       -16.0389
  25   2.0000      -0.572518       -15.5790
  26   2.0000      -0.562026       -15.2935
  27   2.0000      -0.524050       -14.2601
  28   2.0000      -0.493571       -13.4307
  29   2.0000      -0.486438       -13.2367
  30   2.0000      -0.458353       -12.4724
  31   2.0000      -0.422136       -11.4869
  32   2.0000      -0.393508       -10.7079
  33   0.0000       0.127619         3.4727
  34   0.0000       0.134701         3.6654
  35   0.0000       0.159642         4.3441
  36   0.0000       0.168356         4.5812
  37   0.0000       0.176842         4.8121

MULLIKEN ATOMIC CHARGES
-----------------------
   0 C :   -0.431622
   1 C :    0.074202
   2 C :   -0.170526
   3 N :   -0.241352
   4 C :   -0.098911
   5 C :    0.103722
   6 O :   -0.248802
   7 C :    0.235842
   8 O :   -0.239374
   9 H :    0.135279
  10 H :    0.146083
  11 H :    0.148432
  12 H :    0.138579
  13 H :    0.151210
  14 H :    0.151831
  15 H :    0.145407
Sum of atomic charges:   -0.0000000

LOEWDIN ATOMIC CHARGES
----------------------
   0 C :   -0.267321
   1 C :   -0.248039
   2 C :   -0.212758
   3 N :    0.138781
   4 C :   -0.173516
   5 C :   -0.187051
   6 O :    0.247005
   7 C :   -0.440105
   8 O :    0.171148
   9 H :    0.131378
  10 H :    0.135756
  11 H :    0.137522
  12 H :    0.140631
  13 H :    0.137798
  14 H :    0.147676
  15 H :    0.141094

  Mayer bond orders larger than 0.1
B(  0-C ,  1-C ) :   0.8684 B(  0-C ,  9-H ) :   0.9346 B(  0-C , 10-H ) :   0.9373
B(  0-C , 11-H ) :   0.9376 B(  1-C ,  2-C ) :   0.9671 B(  1-C ,  3-N ) :   0.7904
B(  1-C ,  5-C ) :   0.8469 B(  2-C ,  3-N ) :   0.9075 B(  2-C , 12-H ) :   0.9200
B(  2-C , 13-H ) :   0.8883 B(  3-N ,  4-C ) :   0.9217 B(  4-C ,  5-C ) :   0.9333
B(  4-C ,  7-C ) :   0.9272 B(  4-C , 14-H ) :   0.9106 B(  5-C ,  6-O ) :   0.9070
B(  5-C , 15-H ) :   0.9394 B(  6-O ,  7-C ) :   1.0452 B(  7-C ,  8-O ) :   2.0606

MP2 TOTAL ENERGY:     -437.125442037 Eh
FINAL SINGLE POINT ENERGY      -437.125442036728

DIPOLE MOMENT
-------------
                                X             Y             Z
Electronic contribution:      0.26345      -8.32482      -2.32391
Nuclear contribution   :      0.06147       9.77699       2.23572
                        -----------------------------------------
Total Dipole Moment    :      0.32492       1.45217      -0.08818
                        -----------------------------------------
Magnitude (a.u.)       :      1.49069
Magnitude (Debye)      :      3.78903

                             ****ORCA TERMINATED NORMALLY****
TOTAL RUN TIME: 0 days 0 hours 16 minutes 41 seconds 753 msec
