                         Program Version 3.0.3 - RELEASE   -
|  1> ! RI-MP2 RIJK def2-TZVP def2-TZVP/C def2-TZVP/JK TIGHTSCF
|  2> % maxcore 2000
|  3> % mp2 density relaxed end
|  4> *xyz 0 1
|  5>  C       -0.2953218367     1.5687704650    -0.0517224353
|  6>  C        0.0319723567     0.0825379374    -0.0250931655
|  7>  C        1.1802984120    -0.4764379518    -0.9360473316
|  8>  C        1.7873600741    -1.2288139925     0.2874064863
|  9>  C        2.8997298643    -0.5155596194     1.0930680273
| 10>  N        2.6793256554     0.9450620177     0.9633149120
| 11>  C        1.8915855852     0.1706208938     1.9502412333
| 12>  C        0.7325030512    -0.5650035363     1.2127770313
| 13>  O       -0.0208421244    -1.3950885693     2.0533109565
| 14>  H        0.6060791659     2.1679045991     0.0925082112
| 15>  H       -0.7470573348     1.8510120498    -1.0094561596
| 16>  H       -1.0141061149     1.8304225469     0.7347992277
| 17>  H       -0.8790095376    -0.5034108575    -0.1932307587
| 18>  H        0.8403744496    -1.1294487754    -1.7426109320
| 19>  H        1.8339095762     0.2949919880    -1.3444473136
| 20>  H        1.8559839043    -2.3149748306     0.2512029772
| 21>  H        3.8837798457    -0.8966480679     1.3384480591
| 22>  H        3.4266074361     1.4108948602     1.4771237797
| 23>  H        1.9162408176     0.4197138967     3.0056568548
| 24>  H       -0.5789972959    -0.8351860540     2.6054546000
| 25> *
| 26>
| 27>                          ****END OF INPUT****

CARTESIAN COORDINATES (ANGSTROEM)
---------------------------------
  C     -0.295322    1.568770   -0.051722
  C      0.031972    0.082538   -0.025093
  C      1.180298   -0.476438   -0.936047
  C      1.787360   -1.228814    0.287406
  C      2.899730   -0.515560    1.093068
  N      2.679326    0.945062    0.963315
  C      1.891586    0.170621    1.950241
  C      0.732503   -0.565004    1.212777
  O     -0.020842   -1.395089    2.053311
  H      0.606079    2.167905    0.092508
  H     -0.747057    1.851012   -1.009456
  H     -1.014106    1.830423    0.734799
  H     -0.879010   -0.503411   -0.193231
  H      0.840374   -1.129449   -1.742611
  H      1.833910    0.294992   -1.344447
  H      1.855984   -2.314975    0.251203
  H      3.883780   -0.896648    1.338448
  H      3.426607    1.410895    1.477124
  H      1.916241    0.419714    3.005657
  H     -0.578997   -0.835186    2.605455

 Total Charge           Charge          ....    0
 Multiplicity           Mult            ....    1
 Number of Electrons    NEL             ....   68
 Basis Dimension        Dim             ....  345

ORBITAL ENERGIES
----------------

  NO   OCC          E(Eh)            E(eV)
   0   2.0000     -20.560073      -559.4680
   1   2.0000     -15.562416      -423.4749
   2   2.0000     -11.279775      -306.9383
   3   2.0000     -11.261550      -306.4423
   4   2.0000     -11.259929      -306.3982
   5   2.0000     -11.222436      -305.3780
   6   2.0000     -11.219229      -305.2907
   7   2.0000     -11.210312      -305.0481
   8   2.0000     -11.202153      -304.8261
   9   2.0000      -1.370322       -37.2883
  10   2.0000      -1.278144       -34.7801
  11   2.0000      -1.110405       -30.2157
  12   2.0000      -0.995329       -27.0843
  13   2.0000      -0.929822       -25.3017
  14   2.0000      -0.879114       -23.9219
  15   2.0000      -0.817866       -22.2553
  16   2.0000      -0.788363       -21.4524
  17   2.0000      -0.729704       -19.8563
  18   2.0000      -0.712152       -19.3787
  19   2.0000      -0.662000       -18.0139
  20   2.0000      -0.617742       -16.8096
  21   2.0000      -0.609870       -16.5954
  22   2.0000      -0.589207       -16.0331
  23   2.0000      -0.557440       -15.1687
  24   2.0000      -0.550744       -14.9865
  25   2.0000      -0.529605       -14.4113
  26   2.0000      -0.521694       -14.1960
  27   2.0000      -0.503062       -13.6890
  28   2.0000      -0.472466       -12.8564
  29   2.0000      -0.455062       -12.3829
  30   2.0000      -0.440382       -11.9834
  31   2.0000      -0.404636       -11.0107
  32   2.0000      -0.394840       -10.7441
  33   2.0000      -0.352212        -9.5842
  34   0.0000       0.133306         3.6275
  35   0.0000       0.139505         3.7961
  36   0.0000       0.164207         4.4683
  37   0.0000       0.169680         4.6172
  38   0.0000       0.186071         5.0633

MULLIKEN ATOMIC CHARGES
-----------------------
   0 C :   -0.432059
   1 C :   -0.094616
   2 C :   -0.220762
   3 C :   -0.098529
   4 C :   -0.122640
   5 N :   -0.390701
   6 C :   -0.172269
   7 C :    0.340103
   8 O :   -0.455492
   9 H :    0.155161
  10 H :    0.128424
  11 H :    0.111935
  12 H :    0.092842
  13 H :    0.115975
  14 H :    0.117254
  15 H :    0.114641
  16 H :    0.136375
  17 H :    0.214037
  18 H :    0.142866
  19 H :    0.317456
Sum of atomic charges:    0.0000000

LOEWDIN ATOMIC CHARGES
----------------------
   0 C :   -0.304690
   1 C :   -0.218350
   2 C :   -0.193698
   3 C :   -0.141990
   4 C :   -0.207467
   5 N :    0.003635
   6 C :   -0.202339
   7 C :   -0.294995
   8 O :    0.020189
   9 H :    0.127654
  10 H :    0.123399
  11 H :    0.119792
  12 H :    0.152428
  13 H :    0.126607
  14 H :    0.137300
  15 H :    0.144494
  16 H :    0.127633
  17 H :    0.171727
  18 H :    0.128143
  19 H :    0.180527

  Mayer bond orders larger than 0.1
B(  0-C ,  1-C ) :   0.8678 B(  0-C ,  9-H ) :   0.9403 B(  0-C , 10-H ) :   0.9349
B(  0-C , 11-H ) :   0.9372 B(  1-C ,  2-C ) :   0.9877 B(  1-C ,  7-C ) :   0.9604
B(  1-C , 12-H ) :   0.9160 B(  2-C ,  3-C ) :   0.9695 B(  2-C , 13-H ) :   0.9154
B(  2-C , 14-H ) :   0.8923 B(  3-C ,  4-C ) :   0.9460 B(  3-C ,  7-C ) :   0.9760
B(  3-C , 15-H ) :   0.8848 B(  4-C ,  5-N ) :   0.9125 B(  4-C ,  6-C ) :   0.9106
B(  4-C , 16-H ) :   0.9143 B(  5-N ,  6-C ) :   0.8998 B(  5-N , 17-H ) :   0.8645
B(  6-C ,  7-C ) :   0.8586 B(  6-C , 18-H ) :   0.9020 B(  7-C ,  8-O ) :   1.0160
B(  8-O , 19-H ) :   0.8394

MP2 TOTAL ENERGY:     -402.388924277 Eh
FINAL SINGLE POINT ENERGY      -402.388924277185

DIPOLE MOMENT
-------------
                                X             Y             Z
Electronic contribution:      1.93883      -3.35025       3.36661
Nuclear contribution   :     -1.69542       3.65350      -2.83718
                        -----------------------------------------
Total Dipole Moment    :      0.24341       0.30324       0.52942
                        -----------------------------------------
Magnitude (a.u.)       :      0.65688
Magnitude (Debye)      :      1.66966

                             ****ORCA TERMINATED NORMALLY****
TOTAL RUN TIME: 0 days 0 hours 20 minutes 49 seconds 292 msec
