                         Program Version 3.0.3 - RELEASE   -
|  1> ! RI-MP2 RIJK def2-TZVP def2-TZVP/C def2-TZVP/JK TIGHTSCF
|  2> % maxcore 2000
|  3> % mp2 density relaxed end
|  4> *xyz 0 1
|  5>  C        0.3564150940     1.5995020024     0.0157469172
|  6>  C       -0.0257974556     0.1522984414    -0.0664826440
|  7>  C       -1.0461962865    -0.4884597561     0.7818281565
|  8>  N        0.3691905735    -0.8727893993     0.9948791659
|  9>  C        0.7491788747    -1.8148966950    -0.1250746458
| 10>  C        0.1270816622    -3.2115640154    -0.1042465665
| 11>  C        0.5566168374    -4.0021177576     1.1150861396
| 12>  O        0.9977976844    -5.1226515874     1.0792712599
| 13>  C        0.3426569393    -0.7903675744    -1.2185447676
| 14>  H        1.4088993106     1.7479115343    -0.2488656082
| 15>  H       -0.2508376549     2.1999552526    -0.6720645423
| 16>  H        0.2028029015     1.9840247071     1.0280300402
| 17>  H       -1.4409393720     0.0824234380     1.6168994468
| 18>  H       -1.7521591312    -1.1981441014     0.3562772216
| 19>  H        1.8377611460    -1.9168747214    -0.0856121799
| 20>  H       -0.9689674840    -3.1398468740    -0.0880021770
| 21>  H        0.4079826147    -3.7728606649    -1.0010200679
| 22>  H        0.4373929039    -3.4603977943     2.0790551453
| 23>  H       -0.4764822639    -1.0650880618    -1.8905323181
| 24>  H        1.1884192260    -0.4501591127    -1.8192532858
| 25> *
| 26>
| 27>                          ****END OF INPUT****

CARTESIAN COORDINATES (ANGSTROEM)
---------------------------------
  C      0.356415    1.599502    0.015747
  C     -0.025797    0.152298   -0.066483
  C     -1.046196   -0.488460    0.781828
  N      0.369191   -0.872789    0.994879
  C      0.749179   -1.814897   -0.125075
  C      0.127082   -3.211564   -0.104247
  C      0.556617   -4.002118    1.115086
  O      0.997798   -5.122652    1.079271
  C      0.342657   -0.790368   -1.218545
  H      1.408899    1.747912   -0.248866
  H     -0.250838    2.199955   -0.672065
  H      0.202803    1.984025    1.028030
  H     -1.440939    0.082423    1.616899
  H     -1.752159   -1.198144    0.356277
  H      1.837761   -1.916875   -0.085612
  H     -0.968967   -3.139847   -0.088002
  H      0.407983   -3.772861   -1.001020
  H      0.437393   -3.460398    2.079055
  H     -0.476482   -1.065088   -1.890532
  H      1.188419   -0.450159   -1.819253

 Total Charge           Charge          ....    0
 Multiplicity           Mult            ....    1
 Number of Electrons    NEL             ....   68
 Basis Dimension        Dim             ....  345

ORBITAL ENERGIES
----------------

  NO   OCC          E(Eh)            E(eV)
   0   2.0000     -20.552975      -559.2749
   1   2.0000     -15.565783      -423.5665
   2   2.0000     -11.327234      -308.2297
   3   2.0000     -11.278120      -306.8933
   4   2.0000     -11.277048      -306.8641
   5   2.0000     -11.262124      -306.4580
   6   2.0000     -11.242436      -305.9222
   7   2.0000     -11.241692      -305.9020
   8   2.0000     -11.230731      -305.6037
   9   2.0000      -1.391249       -37.8578
  10   2.0000      -1.298401       -35.3313
  11   2.0000      -1.068430       -29.0735
  12   2.0000      -1.010939       -27.5091
  13   2.0000      -0.982933       -26.7470
  14   2.0000      -0.907550       -24.6957
  15   2.0000      -0.822332       -22.3768
  16   2.0000      -0.781480       -21.2651
  17   2.0000      -0.729077       -19.8392
  18   2.0000      -0.698152       -18.9977
  19   2.0000      -0.663429       -18.0528
  20   2.0000      -0.646600       -17.5949
  21   2.0000      -0.623742       -16.9729
  22   2.0000      -0.602731       -16.4012
  23   2.0000      -0.584837       -15.9142
  24   2.0000      -0.571270       -15.5450
  25   2.0000      -0.556971       -15.1560
  26   2.0000      -0.551962       -15.0197
  27   2.0000      -0.534812       -14.5530
  28   2.0000      -0.501302       -13.6411
  29   2.0000      -0.486032       -13.2256
  30   2.0000      -0.451021       -12.2729
  31   2.0000      -0.427764       -11.6401
  32   2.0000      -0.412718       -11.2306
  33   2.0000      -0.373778       -10.1710
  34   0.0000       0.129280         3.5179
  35   0.0000       0.134045         3.6475
  36   0.0000       0.149287         4.0623
  37   0.0000       0.160568         4.3693
  38   0.0000       0.172651         4.6981

MULLIKEN ATOMIC CHARGES
-----------------------
   0 C :   -0.428748
   1 C :    0.120842
   2 C :   -0.181717
   3 N :   -0.272892
   4 C :   -0.040954
   5 C :   -0.171489
   6 C :    0.081889
   7 O :   -0.264666
   8 C :   -0.219920
   9 H :    0.132065
  10 H :    0.135859
  11 H :    0.141404
  12 H :    0.131362
  13 H :    0.119180
  14 H :    0.117438
  15 H :    0.113894
  16 H :    0.129497
  17 H :    0.102095
  18 H :    0.122092
  19 H :    0.132771
Sum of atomic charges:    0.0000000

LOEWDIN ATOMIC CHARGES
----------------------
   0 C :   -0.271492
   1 C :   -0.271681
   2 C :   -0.233589
   3 N :    0.120266
   4 C :   -0.245461
   5 C :   -0.249269
   6 C :   -0.287856
   7 O :    0.129194
   8 C :   -0.185989
   9 H :    0.129646
  10 H :    0.131920
  11 H :    0.134532
  12 H :    0.134975
  13 H :    0.123817
  14 H :    0.151323
  15 H :    0.149704
  16 H :    0.150936
  17 H :    0.116976
  18 H :    0.133782
  19 H :    0.138267

  Mayer bond orders larger than 0.1
B(  0-C ,  1-C ) :   0.8888 B(  0-C ,  9-H ) :   0.9384 B(  0-C , 10-H ) :   0.9346
B(  0-C , 11-H ) :   0.9387 B(  1-C ,  2-C ) :   0.9515 B(  1-C ,  3-N ) :   0.8190
B(  1-C ,  8-C ) :   0.8947 B(  2-C ,  3-N ) :   0.8792 B(  2-C , 12-H ) :   0.9234
B(  2-C , 13-H ) :   0.9058 B(  3-N ,  4-C ) :   0.9105 B(  4-C ,  5-C ) :   0.9180
B(  4-C ,  8-C ) :   0.9415 B(  4-C , 14-H ) :   0.9157 B(  5-C ,  6-C ) :   0.8877
B(  5-C , 15-H ) :   0.8994 B(  5-C , 16-H ) :   0.9117 B(  6-C ,  7-O ) :   1.9922
B(  6-C , 17-H ) :   0.9383 B(  8-C , 18-H ) :   0.9126 B(  8-C , 19-H ) :   0.9334

MP2 TOTAL ENERGY:     -402.420330962 Eh
FINAL SINGLE POINT ENERGY      -402.420330962353

DIPOLE MOMENT
-------------
                                X             Y             Z
Electronic contribution:      1.63304      -7.34040       2.80887
Nuclear contribution   :     -2.27315       8.50394      -3.57126
                        -----------------------------------------
Total Dipole Moment    :     -0.64011       1.16354      -0.76239
                        -----------------------------------------
Magnitude (a.u.)       :      1.53128
Magnitude (Debye)      :      3.89219

                             ****ORCA TERMINATED NORMALLY****
TOTAL RUN TIME: 0 days 0 hours 18 minutes 57 seconds 451 msec
