                         Program Version 3.0.3 - RELEASE   -
|  1> ! RI-MP2 RIJK def2-TZVP def2-TZVP/C def2-TZVP/JK TIGHTSCF
|  2> % maxcore 2000
|  3> % mp2 density relaxed end
|  4> *xyz 0 1
|  5>  O        0.1551840723     1.5127356362    -0.0703378581
|  6>  C        0.0728292736     0.1071386101    -0.0034296432
|  7>  C        0.6237386595    -0.5547503949    -1.1985588768
|  8>  C        1.0747428699    -1.0888101541    -2.1752917033
|  9>  C        0.7805457216    -0.3853811093     1.2345920803
| 10>  N        1.6641731198     0.2753524298     1.9084545851
| 11>  C        2.0447448486    -0.5962426214     2.9239145260
| 12>  C        1.3515733302    -1.7493719119     2.7929283809
| 13>  O        0.5287121774    -1.6241915408     1.7032836357
| 14>  H        1.0017616771     1.7592671623     0.3281145578
| 15>  H       -0.9911444173    -0.1518910229     0.0766343536
| 16>  H        1.4719841006    -1.5576217488    -3.0418048527
| 17>  H        2.7794940971    -0.3235092788     3.6639540790
| 18>  H        1.3019992195    -2.6817814155     3.3274010857
| 19> *
| 20>
| 21>                          ****END OF INPUT****

CARTESIAN COORDINATES (ANGSTROEM)
---------------------------------
  O      0.155184    1.512736   -0.070338
  C      0.072829    0.107139   -0.003430
  C      0.623739   -0.554750   -1.198559
  C      1.074743   -1.088810   -2.175292
  C      0.780546   -0.385381    1.234592
  N      1.664173    0.275352    1.908455
  C      2.044745   -0.596243    2.923915
  C      1.351573   -1.749372    2.792928
  O      0.528712   -1.624192    1.703284
  H      1.001762    1.759267    0.328115
  H     -0.991144   -0.151891    0.076634
  H      1.471984   -1.557622   -3.041805
  H      2.779494   -0.323509    3.663954
  H      1.301999   -2.681781    3.327401

 Total Charge           Charge          ....    0
 Multiplicity           Mult            ....    1
 Number of Electrons    NEL             ....   64
 Basis Dimension        Dim             ....  309

ORBITAL ENERGIES
----------------

  NO   OCC          E(Eh)            E(eV)
   0   2.0000     -20.652277      -561.9770
   1   2.0000     -20.574190      -559.8522
   2   2.0000     -15.578363      -423.9088
   3   2.0000     -11.353809      -308.9528
   4   2.0000     -11.341521      -308.6185
   5   2.0000     -11.304900      -307.6220
   6   2.0000     -11.274454      -306.7935
   7   2.0000     -11.245815      -306.0142
   8   2.0000     -11.239766      -305.8496
   9   2.0000      -1.503513       -40.9127
  10   2.0000      -1.388804       -37.7913
  11   2.0000      -1.247792       -33.9542
  12   2.0000      -1.088916       -29.6309
  13   2.0000      -1.038147       -28.2494
  14   2.0000      -0.962484       -26.1905
  15   2.0000      -0.854609       -23.2551
  16   2.0000      -0.816962       -22.2307
  17   2.0000      -0.766044       -20.8451
  18   2.0000      -0.752993       -20.4900
  19   2.0000      -0.700309       -19.0564
  20   2.0000      -0.673065       -18.3150
  21   2.0000      -0.659568       -17.9478
  22   2.0000      -0.649676       -17.6786
  23   2.0000      -0.605195       -16.4682
  24   2.0000      -0.592319       -16.1178
  25   2.0000      -0.549154       -14.9432
  26   2.0000      -0.493641       -13.4327
  27   2.0000      -0.481064       -13.0904
  28   2.0000      -0.468938       -12.7605
  29   2.0000      -0.410328       -11.1656
  30   2.0000      -0.404853       -11.0166
  31   2.0000      -0.353669        -9.6238
  32   0.0000       0.124876         3.3980
  33   0.0000       0.142092         3.8665
  34   0.0000       0.160818         4.3761
  35   0.0000       0.166700         4.5361
  36   0.0000       0.171512         4.6671

MULLIKEN ATOMIC CHARGES
-----------------------
   0 O :   -0.450494
   1 C :    0.004651
   2 C :   -0.034659
   3 C :   -0.125849
   4 C :    0.289878
   5 N :   -0.333744
   6 C :   -0.113239
   7 C :   -0.024230
   8 O :   -0.202575
   9 H :    0.339091
  10 H :    0.139424
  11 H :    0.196113
  12 H :    0.151272
  13 H :    0.164361
Sum of atomic charges:   -0.0000000

LOEWDIN ATOMIC CHARGES
----------------------
   0 O :    0.018306
   1 C :   -0.311192
   2 C :   -0.079354
   3 C :   -0.075883
   4 C :   -0.323823
   5 N :    0.116483
   6 C :   -0.241671
   7 C :   -0.233676
   8 O :    0.364649
   9 H :    0.186989
  10 H :    0.172392
  11 H :    0.129476
  12 H :    0.140048
  13 H :    0.137256

  Mayer bond orders larger than 0.1
B(  0-O ,  1-C ) :   1.0558 B(  0-O ,  9-H ) :   0.8155 B(  1-C ,  2-C ) :   1.0123
B(  1-C ,  4-C ) :   0.9351 B(  1-C , 10-H ) :   0.9423 B(  2-C ,  3-C ) :   2.6569
B(  3-C , 11-H ) :   0.8960 B(  4-C ,  5-N ) :   1.5731 B(  4-C ,  8-O ) :   1.0903
B(  5-N ,  6-C ) :   1.1861 B(  6-C ,  7-C ) :   1.6070 B(  6-C , 12-H ) :   0.9289
B(  7-C ,  8-O ) :   1.0277 B(  7-C , 13-H ) :   0.9214

MP2 TOTAL ENERGY:     -435.938516256 Eh
FINAL SINGLE POINT ENERGY      -435.938516256380

DIPOLE MOMENT
-------------
                                X             Y             Z
Electronic contribution:     -0.63587      -0.16551       0.25455
Nuclear contribution   :      0.96666      -0.77058       0.27424
                        -----------------------------------------
Total Dipole Moment    :      0.33079      -0.93609       0.52879
                        -----------------------------------------
Magnitude (a.u.)       :      1.12486
Magnitude (Debye)      :      2.85917

                             ****ORCA TERMINATED NORMALLY****
TOTAL RUN TIME: 0 days 0 hours 13 minutes 36 seconds 109 msec
