                         Program Version 3.0.3 - RELEASE   -
|  1> ! RI-MP2 RIJK def2-TZVP def2-TZVP/C def2-TZVP/JK TIGHTSCF
|  2> % maxcore 2000
|  3> % mp2 density relaxed end
|  4> *xyz 0 1
|  5>  C        0.1897877295     1.2557120624    -0.2329412490
|  6>  O       -0.1694850961    -0.0729047327     0.1324124179
|  7>  C        0.5303158592    -0.5562997505     1.1870722957
|  8>  C        1.9803146068    -0.8653378948     1.4488770533
|  9>  N        2.0247015215    -0.0523677521     2.6637573472
| 10>  C        0.5444234030    -0.2377153260     2.7541378012
| 11>  C        0.2868040225    -1.7570122863     3.0057387180
| 12>  C        0.8519336023    -1.9620469317     1.6028390529
| 13>  O        0.7948842210    -3.0789899169     0.8012830873
| 14>  H        1.2523679598     1.3171054392    -0.4986300073
| 15>  H       -0.4217891166     1.5193020797    -1.0978803333
| 16>  H       -0.0111094414     1.9613783003     0.5834305936
| 17>  H        2.8070622094    -0.9969393049     0.7612241678
| 18>  H        2.5156176212    -0.5010029095     3.4402998997
| 19>  H       -0.0223368245     0.5213099245     3.2901165908
| 20>  H        0.7959212190    -2.2076963892     3.8671948612
| 21>  H       -0.7813846960    -1.9869960111     3.0365498663
| 22>  H        1.5280534995    -3.6602992203     1.0321539369
| 23> *
| 24>
| 25>                          ****END OF INPUT****

CARTESIAN COORDINATES (ANGSTROEM)
---------------------------------
  C      0.189788    1.255712   -0.232941
  O     -0.169485   -0.072905    0.132412
  C      0.530316   -0.556300    1.187072
  C      1.980315   -0.865338    1.448877
  N      2.024702   -0.052368    2.663757
  C      0.544423   -0.237715    2.754138
  C      0.286804   -1.757012    3.005739
  C      0.851934   -1.962047    1.602839
  O      0.794884   -3.078990    0.801283
  H      1.252368    1.317105   -0.498630
  H     -0.421789    1.519302   -1.097880
  H     -0.011109    1.961378    0.583431
  H      2.807062   -0.996939    0.761224
  H      2.515618   -0.501003    3.440300
  H     -0.022337    0.521310    3.290117
  H      0.795921   -2.207696    3.867195
  H     -0.781385   -1.986996    3.036550
  H      1.528053   -3.660299    1.032154

 Total Charge           Charge          ....    0
 Multiplicity           Mult            ....    1
 Number of Electrons    NEL             ....   68
 Basis Dimension        Dim             ....  333

ORBITAL ENERGIES
----------------

  NO   OCC          E(Eh)            E(eV)
   0   2.0000     -20.574218      -559.8529
   1   2.0000     -20.573652      -559.8375
   2   2.0000     -15.552437      -423.2033
   3   2.0000     -11.290665      -307.2346
   4   2.0000     -11.288980      -307.1888
   5   2.0000     -11.274225      -306.7872
   6   2.0000     -11.269357      -306.6548
   7   2.0000     -11.258794      -306.3674
   8   2.0000     -11.230830      -305.6064
   9   2.0000      -1.402117       -38.1535
  10   2.0000      -1.381623       -37.5959
  11   2.0000      -1.277868       -34.7726
  12   2.0000      -1.077731       -29.3266
  13   2.0000      -0.981176       -26.6992
  14   2.0000      -0.939718       -25.5710
  15   2.0000      -0.864474       -23.5235
  16   2.0000      -0.787998       -21.4425
  17   2.0000      -0.735192       -20.0056
  18   2.0000      -0.725570       -19.7437
  19   2.0000      -0.680009       -18.5040
  20   2.0000      -0.654483       -17.8094
  21   2.0000      -0.647424       -17.6173
  22   2.0000      -0.614170       -16.7124
  23   2.0000      -0.611699       -16.6452
  24   2.0000      -0.590185       -16.0598
  25   2.0000      -0.548983       -14.9386
  26   2.0000      -0.532613       -14.4931
  27   2.0000      -0.512879       -13.9562
  28   2.0000      -0.498750       -13.5717
  29   2.0000      -0.483620       -13.1600
  30   2.0000      -0.464810       -12.6481
  31   2.0000      -0.410967       -11.1830
  32   2.0000      -0.374671       -10.1953
  33   2.0000      -0.341719        -9.2987
  34   0.0000       0.132935         3.6174
  35   0.0000       0.148677         4.0457
  36   0.0000       0.155635         4.2351
  37   0.0000       0.174402         4.7457
  38   0.0000       0.190019         5.1707

MULLIKEN ATOMIC CHARGES
-----------------------
   0 C :   -0.194872
   1 O :   -0.288315
   2 C :    0.117903
   3 C :   -0.189302
   4 N :   -0.284159
   5 C :   -0.088549
   6 C :   -0.203265
   7 C :    0.149329
   8 O :   -0.444034
   9 H :    0.124377
  10 H :    0.141941
  11 H :    0.122463
  12 H :    0.146136
  13 H :    0.196096
  14 H :    0.137555
  15 H :    0.108362
  16 H :    0.119981
  17 H :    0.328355
Sum of atomic charges:    0.0000000

LOEWDIN ATOMIC CHARGES
----------------------
   0 C :   -0.318958
   1 O :    0.213726
   2 C :   -0.264438
   3 C :   -0.212893
   4 N :    0.022486
   5 C :   -0.178629
   6 C :   -0.198534
   7 C :   -0.309287
   8 O :    0.042419
   9 H :    0.108095
  10 H :    0.113674
  11 H :    0.107233
  12 H :    0.135642
  13 H :    0.156413
  14 H :    0.128535
  15 H :    0.121238
  16 H :    0.145516
  17 H :    0.187762

  Mayer bond orders larger than 0.1
B(  0-C ,  1-O ) :   0.8674 B(  0-C ,  9-H ) :   0.9340 B(  0-C , 10-H ) :   0.9380
B(  0-C , 11-H ) :   0.9359 B(  1-O ,  2-C ) :   1.0621 B(  2-C ,  3-C ) :   0.8638
B(  2-C ,  5-C ) :   0.8542 B(  2-C ,  7-C ) :   0.8408 B(  3-C ,  4-N ) :   0.9829
B(  3-C ,  7-C ) :   0.7731 B(  3-C , 12-H ) :   0.9190 B(  4-N ,  5-C ) :   0.9699
B(  4-N , 13-H ) :   0.8755 B(  5-C ,  6-C ) :   0.9066 B(  5-C , 14-H ) :   0.9076
B(  6-C ,  7-C ) :   0.9641 B(  6-C , 15-H ) :   0.9138 B(  6-C , 16-H ) :   0.9168
B(  7-C ,  8-O ) :   1.0935 B(  8-O , 17-H ) :   0.8338

MP2 TOTAL ENERGY:     -438.269715399 Eh
FINAL SINGLE POINT ENERGY      -438.269715399367

DIPOLE MOMENT
-------------
                                X             Y             Z
Electronic contribution:     -0.12600      -3.23607      -0.79097
Nuclear contribution   :      0.62445       3.15365       1.27651
                        -----------------------------------------
Total Dipole Moment    :      0.49845      -0.08242       0.48554
                        -----------------------------------------
Magnitude (a.u.)       :      0.70071
Magnitude (Debye)      :      1.78107

                             ****ORCA TERMINATED NORMALLY****
TOTAL RUN TIME: 0 days 0 hours 15 minutes 28 seconds 610 msec
