                         Program Version 3.0.3 - RELEASE   -
|  1> ! RI-MP2 RIJK def2-TZVP def2-TZVP/C def2-TZVP/JK TIGHTSCF
|  2> % maxcore 2000
|  3> % mp2 density relaxed end
|  4> *xyz 0 1
|  5>  C       -0.1561269612     1.3951895713     0.0962112848
|  6>  O       -0.0487621803    -0.0255775243     0.0660571856
|  7>  C        0.6293128561    -0.6123087794     1.0737771275
|  8>  C        0.7286926302    -2.0126596342     1.0336831157
|  9>  C        1.4199938240    -2.6260284644     2.0588947317
| 10>  C        1.9827396045    -1.8482323118     3.0759229225
| 11>  C        1.8281372881    -0.4684663483     3.0241723724
| 12>  C        2.4028375902     0.4397064120     4.0790055232
| 13>  N        1.1552257939     0.1381599324     2.0276031636
| 14>  H        0.8299210879     1.8679416766     0.0659284296
| 15>  H       -0.7313716344     1.6626519980    -0.7915932509
| 16>  H       -0.6722173574     1.7346231206     0.9990611511
| 17>  H        0.2725108714    -2.5629671729     0.2207078923
| 18>  H        1.5256626817    -3.7061333585     2.0746851922
| 19>  H        2.5297247423    -2.3073913859     3.8908544850
| 20>  H        2.9326805814    -0.1229246531     4.8511829567
| 21>  H        3.0977138378     1.1562386981     3.6287277134
| 22>  H        1.6079682939     1.0237963437     4.5544474836
| 23> *
| 24>
| 25>                          ****END OF INPUT****

CARTESIAN COORDINATES (ANGSTROEM)
---------------------------------
  C     -0.156127    1.395190    0.096211
  O     -0.048762   -0.025578    0.066057
  C      0.629313   -0.612309    1.073777
  C      0.728693   -2.012660    1.033683
  C      1.419994   -2.626028    2.058895
  C      1.982740   -1.848232    3.075923
  C      1.828137   -0.468466    3.024172
  C      2.402838    0.439706    4.079006
  N      1.155226    0.138160    2.027603
  H      0.829921    1.867942    0.065928
  H     -0.731372    1.662652   -0.791593
  H     -0.672217    1.734623    0.999061
  H      0.272511   -2.562967    0.220708
  H      1.525663   -3.706133    2.074685
  H      2.529725   -2.307391    3.890854
  H      2.932681   -0.122925    4.851183
  H      3.097714    1.156239    3.628728
  H      1.607968    1.023796    4.554447

 Total Charge           Charge          ....    0
 Multiplicity           Mult            ....    1
 Number of Electrons    NEL             ....   66
 Basis Dimension        Dim             ....  333

ORBITAL ENERGIES
----------------

  NO   OCC          E(Eh)            E(eV)
   0   2.0000     -20.583534      -560.1064
   1   2.0000     -15.549191      -423.1150
   2   2.0000     -11.332412      -308.3706
   3   2.0000     -11.281457      -306.9840
   4   2.0000     -11.273037      -306.7549
   5   2.0000     -11.255092      -306.2666
   6   2.0000     -11.226301      -305.4832
   7   2.0000     -11.223186      -305.3984
   8   2.0000     -11.222250      -305.3730
   9   2.0000      -1.419553       -38.6280
  10   2.0000      -1.249455       -33.9994
  11   2.0000      -1.084611       -29.5138
  12   2.0000      -1.051460       -28.6117
  13   2.0000      -0.970509       -26.4089
  14   2.0000      -0.926638       -25.2151
  15   2.0000      -0.832350       -22.6494
  16   2.0000      -0.827563       -22.5191
  17   2.0000      -0.711996       -19.3744
  18   2.0000      -0.686496       -18.6805
  19   2.0000      -0.663579       -18.0569
  20   2.0000      -0.653823       -17.7914
  21   2.0000      -0.610256       -16.6059
  22   2.0000      -0.583125       -15.8676
  23   2.0000      -0.583077       -15.8663
  24   2.0000      -0.557540       -15.1714
  25   2.0000      -0.546291       -14.8653
  26   2.0000      -0.529736       -14.4148
  27   2.0000      -0.525579       -14.3017
  28   2.0000      -0.506723       -13.7886
  29   2.0000      -0.468448       -12.7471
  30   2.0000      -0.419437       -11.4135
  31   2.0000      -0.381424       -10.3791
  32   2.0000      -0.316230        -8.6051
  33   0.0000       0.110489         3.0065
  34   0.0000       0.144395         3.9292
  35   0.0000       0.145707         3.9649
  36   0.0000       0.163882         4.4594
  37   0.0000       0.169058         4.6003

MULLIKEN ATOMIC CHARGES
-----------------------
   0 C :   -0.200672
   1 O :   -0.268366
   2 C :    0.305520
   3 C :   -0.199128
   4 C :   -0.080354
   5 C :   -0.205020
   6 C :    0.160106
   7 C :   -0.415904
   8 N :   -0.295319
   9 H :    0.128353
  10 H :    0.140416
  11 H :    0.128354
  12 H :    0.133922
  13 H :    0.131471
  14 H :    0.126851
  15 H :    0.128186
  16 H :    0.140793
  17 H :    0.140791
Sum of atomic charges:    0.0000000

LOEWDIN ATOMIC CHARGES
----------------------
   0 C :   -0.324783
   1 O :    0.230311
   2 C :   -0.340495
   3 C :   -0.119770
   4 C :   -0.136411
   5 C :   -0.138996
   6 C :   -0.245628
   7 C :   -0.268854
   8 N :    0.171046
   9 H :    0.110078
  10 H :    0.112487
  11 H :    0.110078
  12 H :    0.152432
  13 H :    0.148313
  14 H :    0.148515
  15 H :    0.125790
  16 H :    0.132945
  17 H :    0.132943

  Mayer bond orders larger than 0.1
B(  0-C ,  1-O ) :   0.8505 B(  0-C ,  9-H ) :   0.9358 B(  0-C , 10-H ) :   0.9337
B(  0-C , 11-H ) :   0.9358 B(  1-O ,  2-C ) :   1.1129 B(  2-C ,  3-C ) :   1.2695
B(  2-C ,  8-N ) :   1.3484 B(  3-C ,  4-C ) :   1.4089 B(  3-C , 12-H ) :   0.9323
B(  4-C ,  5-C ) :   1.2813 B(  4-C , 13-H ) :   0.9329 B(  5-C ,  6-C ) :   1.3898
B(  5-C , 14-H ) :   0.9176 B(  6-C ,  7-C ) :   0.8850 B(  6-C ,  8-N ) :   1.3418
B(  7-C , 15-H ) :   0.9512 B(  7-C , 16-H ) :   0.9292 B(  7-C , 17-H ) :   0.9292

MP2 TOTAL ENERGY:     -401.312634940 Eh
FINAL SINGLE POINT ENERGY      -401.312634939813

DIPOLE MOMENT
-------------
                                X             Y             Z
Electronic contribution:     -1.41949      -3.66893      -2.80912
Nuclear contribution   :      1.55279       3.53797       3.00498
                        -----------------------------------------
Total Dipole Moment    :      0.13330      -0.13096       0.19587
                        -----------------------------------------
Magnitude (a.u.)       :      0.27071
Magnitude (Debye)      :      0.68809

                             ****ORCA TERMINATED NORMALLY****
TOTAL RUN TIME: 0 days 0 hours 16 minutes 25 seconds 538 msec
