                         Program Version 3.0.3 - RELEASE   -
|  1> ! RI-MP2 RIJK def2-TZVP def2-TZVP/C def2-TZVP/JK TIGHTSCF
|  2> % maxcore 2000
|  3> % mp2 density relaxed end
|  4> *xyz 0 1
|  5>  O        0.0022012778     0.0165325443     0.1482447554
|  6>  C       -0.0126757312     1.2106368424     0.0456432564
|  7>  C       -1.1762516133     2.2106970214    -0.0095641330
|  8>  C       -0.8215321431     3.0431010842     1.2562830651
|  9>  C        0.7553389406     3.0696648134     1.2456190116
| 10>  C        1.1170534860     2.2506953473    -0.0128328605
| 11>  N        0.7563657487     3.1210047634    -1.1618612227
| 12>  C        0.0741768742     2.4276937599    -2.2715565832
| 13>  C       -0.7408950432     3.0561957963    -1.2005278252
| 14>  H       -2.1767709405     1.7842742980    -0.0441580481
| 15>  H       -1.2509505126     4.0467378288     1.2047957476
| 16>  H       -1.2058953364     2.5613730227     2.1590390771
| 17>  H        1.1532855112     4.0828257409     1.1598684128
| 18>  H        1.1690272032     2.6093844697     2.1464362034
| 19>  H        2.1358385863     1.8721409122    -0.0751059622
| 20>  H        0.1706145796     2.9378168827    -3.2246755695
| 21>  H        0.1228842561     1.3426504059    -2.3368045696
| 22>  H       -1.2545782633     3.9973513463    -1.3805835154
| 23> *
| 24>
| 25>                          ****END OF INPUT****

CARTESIAN COORDINATES (ANGSTROEM)
---------------------------------
  O      0.002201    0.016533    0.148245
  C     -0.012676    1.210637    0.045643
  C     -1.176252    2.210697   -0.009564
  C     -0.821532    3.043101    1.256283
  C      0.755339    3.069665    1.245619
  C      1.117053    2.250695   -0.012833
  N      0.756366    3.121005   -1.161861
  C      0.074177    2.427694   -2.271557
  C     -0.740895    3.056196   -1.200528
  H     -2.176771    1.784274   -0.044158
  H     -1.250951    4.046738    1.204796
  H     -1.205895    2.561373    2.159039
  H      1.153286    4.082826    1.159868
  H      1.169027    2.609384    2.146436
  H      2.135839    1.872141   -0.075106
  H      0.170615    2.937817   -3.224676
  H      0.122884    1.342650   -2.336805
  H     -1.254578    3.997351   -1.380584

 Total Charge           Charge          ....    0
 Multiplicity           Mult            ....    1
 Number of Electrons    NEL             ....   66
 Basis Dimension        Dim             ....  333

ORBITAL ENERGIES
----------------

  NO   OCC          E(Eh)            E(eV)
   0   2.0000     -20.558568      -559.4271
   1   2.0000     -15.575132      -423.8209
   2   2.0000     -11.332325      -308.3682
   3   2.0000     -11.275230      -306.8146
   4   2.0000     -11.271151      -306.7036
   5   2.0000     -11.266966      -306.5897
   6   2.0000     -11.251713      -306.1747
   7   2.0000     -11.245305      -306.0003
   8   2.0000     -11.239873      -305.8525
   9   2.0000      -1.402071       -38.1523
  10   2.0000      -1.301703       -35.4211
  11   2.0000      -1.118933       -30.4477
  12   2.0000      -1.029191       -28.0057
  13   2.0000      -0.947207       -25.7748
  14   2.0000      -0.873502       -23.7692
  15   2.0000      -0.847432       -23.0598
  16   2.0000      -0.767939       -20.8967
  17   2.0000      -0.752270       -20.4703
  18   2.0000      -0.699083       -19.0230
  19   2.0000      -0.672998       -18.3132
  20   2.0000      -0.659713       -17.9517
  21   2.0000      -0.606821       -16.5124
  22   2.0000      -0.588931       -16.0256
  23   2.0000      -0.570708       -15.5298
  24   2.0000      -0.556479       -15.1426
  25   2.0000      -0.529397       -14.4056
  26   2.0000      -0.516611       -14.0577
  27   2.0000      -0.513200       -13.9649
  28   2.0000      -0.504162       -13.7190
  29   2.0000      -0.459904       -12.5146
  30   2.0000      -0.446635       -12.1536
  31   2.0000      -0.428759       -11.6671
  32   2.0000      -0.361906        -9.8480
  33   0.0000       0.131748         3.5850
  34   0.0000       0.146089         3.9753
  35   0.0000       0.161278         4.3886
  36   0.0000       0.168137         4.5752
  37   0.0000       0.170283         4.6336

MULLIKEN ATOMIC CHARGES
-----------------------
   0 O :   -0.235656
   1 C :    0.005903
   2 C :    0.081201
   3 C :   -0.306008
   4 C :   -0.278771
   5 C :    0.106964
   6 N :   -0.250060
   7 C :   -0.192035
   8 C :   -0.135515
   9 H :    0.141677
  10 H :    0.126537
  11 H :    0.134441
  12 H :    0.127415
  13 H :    0.131682
  14 H :    0.134841
  15 H :    0.133649
  16 H :    0.146066
  17 H :    0.127669
Sum of atomic charges:    0.0000000

LOEWDIN ATOMIC CHARGES
----------------------
   0 O :    0.171667
   1 C :   -0.287762
   2 C :   -0.190585
   3 C :   -0.207113
   4 C :   -0.211132
   5 C :   -0.232272
   6 N :    0.135555
   7 C :   -0.235816
   8 C :   -0.207147
   9 H :    0.151961
  10 H :    0.137529
  11 H :    0.138232
  12 H :    0.141541
  13 H :    0.139274
  14 H :    0.146555
  15 H :    0.132402
  16 H :    0.136052
  17 H :    0.141058

  Mayer bond orders larger than 0.1
B(  0-O ,  1-C ) :   2.0903 B(  1-C ,  2-C ) :   0.8404 B(  1-C ,  5-C ) :   0.8779
B(  2-C ,  3-C ) :   0.8706 B(  2-C ,  5-C ) :  -0.1161 B(  2-C ,  8-C ) :   0.8911
B(  2-C ,  9-H ) :   0.8957 B(  3-C ,  4-C ) :   0.9594 B(  3-C , 10-H ) :   0.9160
B(  3-C , 11-H ) :   0.9273 B(  4-C ,  5-C ) :   0.8769 B(  4-C , 12-H ) :   0.9115
B(  4-C , 13-H ) :   0.9266 B(  5-C ,  6-N ) :   0.9211 B(  5-C , 14-H ) :   0.9069
B(  6-N ,  7-C ) :   0.8904 B(  6-N ,  8-C ) :   0.8750 B(  7-C ,  8-C ) :   0.9499
B(  7-C , 15-H ) :   0.9291 B(  7-C , 16-H ) :   0.8999 B(  8-C , 17-H ) :   0.9068

MP2 TOTAL ENERGY:     -401.255523813 Eh
FINAL SINGLE POINT ENERGY      -401.255523813327

DIPOLE MOMENT
-------------
                                X             Y             Z
Electronic contribution:      0.68249      -3.99984      -1.31051
Nuclear contribution   :     -1.04955       4.66656       1.39300
                        -----------------------------------------
Total Dipole Moment    :     -0.36707       0.66672       0.08249
                        -----------------------------------------
Magnitude (a.u.)       :      0.76554
Magnitude (Debye)      :      1.94586

                             ****ORCA TERMINATED NORMALLY****
TOTAL RUN TIME: 0 days 0 hours 21 minutes 52 seconds 12 msec
