                         Program Version 3.0.3 - RELEASE   -
|  1> ! RI-MP2 RIJK def2-TZVP def2-TZVP/C def2-TZVP/JK TIGHTSCF
|  2> % maxcore 2000
|  3> % mp2 density relaxed end
|  4> *xyz 0 1
|  5>  C        0.0063173538     1.5584482808     0.0190765455
|  6>  C       -0.0549130355     0.0621147342     0.0645574235
|  7>  C       -1.3372948037    -0.7933854341     0.0629964707
|  8>  C       -0.6302030180    -1.8001539975     1.0318193873
|  9>  C       -0.5205736991    -3.2815644908     0.6361890156
| 10>  C       -1.8257051723    -3.9364995316     0.5703768446
| 11>  N       -2.8694158048    -4.4306587590     0.5237858157
| 12>  C        0.6452906045    -0.9458900782     0.9416483970
| 13>  N        1.0699946116    -0.7191566923    -0.4368648372
| 14>  H        1.0290900318     1.9027640833     0.1915383842
| 15>  H       -0.3136715268     1.9313361846    -0.9611334275
| 16>  H       -0.6484222767     2.0035937946     0.7755523484
| 17>  H       -2.2011599869    -0.3105435266     0.5246552782
| 18>  H       -1.6396334157    -1.1787285221    -0.9171382800
| 19>  H       -1.0713039545    -1.7327980480     2.0298151857
| 20>  H       -0.0344252880    -3.3887401617    -0.3409451477
| 21>  H        0.1054903949    -3.8187448993     1.3584848561
| 22>  H        1.3802718506    -0.8115619996     1.7282456649
| 23>  H        0.7994159047    -1.4605751668    -1.0810227850
| 24> *
| 25>
| 26>                          ****END OF INPUT****

CARTESIAN COORDINATES (ANGSTROEM)
---------------------------------
  C      0.006317    1.558448    0.019077
  C     -0.054913    0.062115    0.064557
  C     -1.337295   -0.793385    0.062996
  C     -0.630203   -1.800154    1.031819
  C     -0.520574   -3.281564    0.636189
  C     -1.825705   -3.936500    0.570377
  N     -2.869416   -4.430659    0.523786
  C      0.645291   -0.945890    0.941648
  N      1.069995   -0.719157   -0.436865
  H      1.029090    1.902764    0.191538
  H     -0.313672    1.931336   -0.961133
  H     -0.648422    2.003594    0.775552
  H     -2.201160   -0.310544    0.524655
  H     -1.639633   -1.178729   -0.917138
  H     -1.071304   -1.732798    2.029815
  H     -0.034425   -3.388740   -0.340945
  H      0.105490   -3.818745    1.358485
  H      1.380272   -0.811562    1.728246
  H      0.799416   -1.460575   -1.081023

 Total Charge           Charge          ....    0
 Multiplicity           Mult            ....    1
 Number of Electrons    NEL             ....   66
 Basis Dimension        Dim             ....  339

ORBITAL ENERGIES
----------------

  NO   OCC          E(Eh)            E(eV)
   0   2.0000     -15.570542      -423.6960
   1   2.0000     -15.569185      -423.6591
   2   2.0000     -11.286705      -307.1268
   3   2.0000     -11.278976      -306.9165
   4   2.0000     -11.275183      -306.8133
   5   2.0000     -11.271277      -306.7070
   6   2.0000     -11.266510      -306.5773
   7   2.0000     -11.245231      -305.9983
   8   2.0000     -11.228166      -305.5339
   9   2.0000      -1.299752       -35.3680
  10   2.0000      -1.220481       -33.2110
  11   2.0000      -1.099498       -29.9189
  12   2.0000      -1.025266       -27.8989
  13   2.0000      -0.988367       -26.8948
  14   2.0000      -0.901994       -24.5445
  15   2.0000      -0.832283       -22.6476
  16   2.0000      -0.743745       -20.2383
  17   2.0000      -0.714724       -19.4486
  18   2.0000      -0.681884       -18.5550
  19   2.0000      -0.665010       -18.0959
  20   2.0000      -0.629080       -17.1181
  21   2.0000      -0.614282       -16.7155
  22   2.0000      -0.582763       -15.8578
  23   2.0000      -0.569032       -15.4841
  24   2.0000      -0.557787       -15.1782
  25   2.0000      -0.536025       -14.5860
  26   2.0000      -0.500419       -13.6171
  27   2.0000      -0.492008       -13.3882
  28   2.0000      -0.463803       -12.6207
  29   2.0000      -0.460174       -12.5220
  30   2.0000      -0.457597       -12.4519
  31   2.0000      -0.428796       -11.6681
  32   2.0000      -0.395043       -10.7497
  33   0.0000       0.117794         3.2053
  34   0.0000       0.139905         3.8070
  35   0.0000       0.142411         3.8752
  36   0.0000       0.168614         4.5882
  37   0.0000       0.173768         4.7285

MULLIKEN ATOMIC CHARGES
-----------------------
   0 C :   -0.414278
   1 C :    0.124298
   2 C :   -0.263119
   3 C :   -0.038924
   4 C :   -0.156130
   5 C :   -0.168421
   6 N :   -0.058944
   7 C :   -0.130733
   8 N :   -0.340640
   9 H :    0.146917
  10 H :    0.134339
  11 H :    0.129064
  12 H :    0.133570
  13 H :    0.130741
  14 H :    0.124456
  15 H :    0.140368
  16 H :    0.164341
  17 H :    0.137670
  18 H :    0.205423
Sum of atomic charges:    0.0000000

LOEWDIN ATOMIC CHARGES
----------------------
   0 C :   -0.272735
   1 C :   -0.284636
   2 C :   -0.174860
   3 C :   -0.202551
   4 C :   -0.230869
   5 C :   -0.191469
   6 N :    0.056402
   7 C :   -0.202627
   8 N :    0.050915
   9 H :    0.135741
  10 H :    0.131476
  11 H :    0.128778
  12 H :    0.140904
  13 H :    0.135052
  14 H :    0.160067
  15 H :    0.160491
  16 H :    0.167360
  17 H :    0.133701
  18 H :    0.158857

  Mayer bond orders larger than 0.1
B(  0-C ,  1-C ) :   0.8927 B(  0-C ,  9-H ) :   0.9400 B(  0-C , 10-H ) :   0.9337
B(  0-C , 11-H ) :   0.9422 B(  1-C ,  2-C ) :   0.9227 B(  1-C ,  7-C ) :   0.8287
B(  1-C ,  8-N ) :   0.9196 B(  2-C ,  3-C ) :   0.9565 B(  2-C , 12-H ) :   0.9169
B(  2-C , 13-H ) :   0.9148 B(  3-C ,  4-C ) :   0.9017 B(  3-C ,  7-C ) :   0.8802
B(  3-C , 14-H ) :   0.8975 B(  4-C ,  5-C ) :   0.9327 B(  4-C , 15-H ) :   0.9083
B(  4-C , 16-H ) :   0.9090 B(  5-C ,  6-N ) :   2.8723 B(  7-C ,  8-N ) :   0.9686
B(  7-C , 17-H ) :   0.9208 B(  8-N , 18-H ) :   0.8655

MP2 TOTAL ENERGY:     -381.374127661 Eh
FINAL SINGLE POINT ENERGY      -381.374127660872

DIPOLE MOMENT
-------------
                                X             Y             Z
Electronic contribution:     -2.35525      -7.30298       0.55136
Nuclear contribution   :      3.12744       8.04706      -0.31790
                        -----------------------------------------
Total Dipole Moment    :      0.77219       0.74407       0.23345
                        -----------------------------------------
Magnitude (a.u.)       :      1.09746
Magnitude (Debye)      :      2.78952

                             ****ORCA TERMINATED NORMALLY****
TOTAL RUN TIME: 0 days 0 hours 16 minutes 43 seconds 712 msec
