                         Program Version 3.0.3 - RELEASE   -
|  1> ! RI-MP2 RIJK def2-TZVP def2-TZVP/C def2-TZVP/JK TIGHTSCF
|  2> % maxcore 2000
|  3> % mp2 density relaxed end
|  4> *xyz 0 1
|  5>  C        0.0621843614     1.5439386277    -0.3083668034
|  6>  C       -0.0236353387     0.0791650685     0.0246240850
|  7>  O        1.1788337459    -0.6900455003     0.0050671821
|  8>  C        0.5110852522    -0.5485202093     1.2584742239
|  9>  C        1.2062002216     0.1721888744     2.3369185016
| 10>  C        1.1300138393     0.0326098253     3.6919345929
| 11>  N        1.9765494341     0.9640471931     4.2387907684
| 12>  N        2.5472756391     1.6321616446     3.3442150854
| 13>  O        2.0721589700     1.1465106204     2.0687687317
| 14>  H        0.9150061361     2.0185451921     0.1769296808
| 15>  H        0.1626833071     1.6687126892    -1.3913443295
| 16>  H       -0.8560165178     2.0530247059     0.0029175236
| 17>  H       -0.8745205272    -0.4441199784    -0.4177340631
| 18>  H        0.0161716831    -1.4511913253     1.6171072687
| 19>  H        0.5527820338    -0.6452535978     4.2966778619
| 20> *
| 21>
| 22>                          ****END OF INPUT****

CARTESIAN COORDINATES (ANGSTROEM)
---------------------------------
  C      0.062184    1.543939   -0.308367
  C     -0.023635    0.079165    0.024624
  O      1.178834   -0.690046    0.005067
  C      0.511085   -0.548520    1.258474
  C      1.206200    0.172189    2.336919
  C      1.130014    0.032610    3.691935
  N      1.976549    0.964047    4.238791
  N      2.547276    1.632162    3.344215
  O      2.072159    1.146511    2.068769
  H      0.915006    2.018545    0.176930
  H      0.162683    1.668713   -1.391344
  H     -0.856017    2.053025    0.002918
  H     -0.874521   -0.444120   -0.417734
  H      0.016172   -1.451191    1.617107
  H      0.552782   -0.645254    4.296678

 Total Charge           Charge          ....    0
 Multiplicity           Mult            ....    1
 Number of Electrons    NEL             ....   66
 Basis Dimension        Dim             ....  315

ORBITAL ENERGIES
----------------

  NO   OCC          E(Eh)            E(eV)
   0   2.0000     -20.663541      -562.2835
   1   2.0000     -20.594419      -560.4026
   2   2.0000     -15.695553      -427.0977
   3   2.0000     -15.645233      -425.7284
   4   2.0000     -11.342032      -308.6324
   5   2.0000     -11.325062      -308.1706
   6   2.0000     -11.316799      -307.9458
   7   2.0000     -11.278270      -306.8973
   8   2.0000     -11.236518      -305.7612
   9   2.0000      -1.531331       -41.6696
  10   2.0000      -1.440356       -39.1941
  11   2.0000      -1.324189       -36.0330
  12   2.0000      -1.115653       -30.3585
  13   2.0000      -1.029569       -28.0160
  14   2.0000      -0.973804       -26.4986
  15   2.0000      -0.870185       -23.6789
  16   2.0000      -0.867936       -23.6177
  17   2.0000      -0.818203       -22.2644
  18   2.0000      -0.737926       -20.0800
  19   2.0000      -0.715637       -19.4735
  20   2.0000      -0.687773       -18.7153
  21   2.0000      -0.665846       -18.1186
  22   2.0000      -0.619423       -16.8554
  23   2.0000      -0.595678       -16.2092
  24   2.0000      -0.585544       -15.9335
  25   2.0000      -0.567771       -15.4498
  26   2.0000      -0.546246       -14.8641
  27   2.0000      -0.538772       -14.6607
  28   2.0000      -0.503761       -13.7080
  29   2.0000      -0.480647       -13.0791
  30   2.0000      -0.474454       -12.9105
  31   2.0000      -0.467892       -12.7320
  32   2.0000      -0.372405       -10.1337
  33   0.0000       0.088380         2.4049
  34   0.0000       0.136565         3.7161
  35   0.0000       0.152570         4.1516
  36   0.0000       0.167540         4.5590
  37   0.0000       0.182280         4.9601

MULLIKEN ATOMIC CHARGES
-----------------------
   0 C :   -0.401184
   1 C :    0.093090
   2 O :   -0.312001
   3 C :   -0.052874
   4 C :    0.220610
   5 C :   -0.184677
   6 N :   -0.096706
   7 N :   -0.025730
   8 O :   -0.111156
   9 H :    0.167217
  10 H :    0.145525
  11 H :    0.132864
  12 H :    0.119852
  13 H :    0.145121
  14 H :    0.160049
Sum of atomic charges:   -0.0000000

LOEWDIN ATOMIC CHARGES
----------------------
   0 C :   -0.290492
   1 C :   -0.275592
   2 O :    0.186539
   3 C :   -0.243820
   4 C :   -0.290280
   5 C :   -0.234374
   6 N :    0.027600
   7 N :   -0.004345
   8 O :    0.283513
   9 H :    0.134405
  10 H :    0.134088
  11 H :    0.133778
  12 H :    0.140220
  13 H :    0.153713
  14 H :    0.145049

  Mayer bond orders larger than 0.1
B(  0-C ,  1-C ) :   0.8966 B(  0-C ,  9-H ) :   0.9316 B(  0-C , 10-H ) :   0.9321
B(  0-C , 11-H ) :   0.9231 B(  1-C ,  2-O ) :   0.8683 B(  1-C ,  3-C ) :   0.9482
B(  1-C , 12-H ) :   0.9241 B(  2-O ,  3-C ) :   0.9402 B(  3-C ,  4-C ) :   0.9243
B(  3-C , 13-H ) :   0.9178 B(  4-C ,  5-C ) :   1.4666 B(  4-C ,  8-O ) :   1.1434
B(  5-C ,  6-N ) :   1.2527 B(  5-C , 14-H ) :   0.9282 B(  6-N ,  7-N ) :   1.4510
B(  7-N ,  8-O ) :   0.8401

MP2 TOTAL ENERGY:     -453.157108826 Eh
FINAL SINGLE POINT ENERGY      -453.157108825724

DIPOLE MOMENT
-------------
                                X             Y             Z
Electronic contribution:      5.26651      -0.78492       5.77805
Nuclear contribution   :     -6.74713       0.22397      -6.15043
                        -----------------------------------------
Total Dipole Moment    :     -1.48063      -0.56094      -0.37237
                        -----------------------------------------
Magnitude (a.u.)       :      1.62652
Magnitude (Debye)      :      4.13429

                             ****ORCA TERMINATED NORMALLY****
TOTAL RUN TIME: 0 days 0 hours 13 minutes 30 seconds 47 msec
