                         Program Version 3.0.3 - RELEASE   -
|  1> ! RI-MP2 RIJK def2-TZVP def2-TZVP/C def2-TZVP/JK TIGHTSCF
|  2> % maxcore 2000
|  3> % mp2 density relaxed end
|  4> *xyz 0 1
|  5>  C       -0.0839099986     1.5713026177    -0.1157367085
|  6>  C        0.1161595818     0.0657077515     0.1161639747
|  7>  C        0.8070825264    -0.2045411807     1.3755139952
|  8>  C        1.3825215824    -0.4331046246     2.4050158784
|  9>  N       -1.2164004239    -0.5723298238     0.1234204873
| 10>  C       -1.6787452542    -1.1760060160    -1.1021401065
| 11>  C       -1.3466526289    -2.0358032643     0.0896011476
| 12>  C       -0.1775147068    -2.9509241193    -0.0133042847
| 13>  O       -0.1752567715    -4.0684401907     0.4397205875
| 14>  H        0.8805166980     2.0848011590    -0.1327907178
| 15>  H       -0.5869149423     1.7364066156    -1.0729642180
| 16>  H       -0.6997854723     1.9933493103     0.6811870747
| 17>  H        0.7425671056    -0.3207947767    -0.7050107360
| 18>  H        1.8901994727    -0.6402643784     3.3147918198
| 19>  H       -2.7208575354    -1.0191379999    -1.3659217580
| 20>  H       -0.9909981828    -1.2192264165    -1.9478943103
| 21>  H       -2.1529168240    -2.4308323351     0.7015220097
| 22>  H        0.7021716639    -2.5505241479    -0.5625361450
| 23> *
| 24>
| 25>                          ****END OF INPUT****

CARTESIAN COORDINATES (ANGSTROEM)
---------------------------------
  C     -0.083910    1.571303   -0.115737
  C      0.116160    0.065708    0.116164
  C      0.807083   -0.204541    1.375514
  C      1.382522   -0.433105    2.405016
  N     -1.216400   -0.572330    0.123420
  C     -1.678745   -1.176006   -1.102140
  C     -1.346653   -2.035803    0.089601
  C     -0.177515   -2.950924   -0.013304
  O     -0.175257   -4.068440    0.439721
  H      0.880517    2.084801   -0.132791
  H     -0.586915    1.736407   -1.072964
  H     -0.699785    1.993349    0.681187
  H      0.742567   -0.320795   -0.705011
  H      1.890199   -0.640264    3.314792
  H     -2.720858   -1.019138   -1.365922
  H     -0.990998   -1.219226   -1.947894
  H     -2.152917   -2.430832    0.701522
  H      0.702172   -2.550524   -0.562536

 Total Charge           Charge          ....    0
 Multiplicity           Mult            ....    1
 Number of Electrons    NEL             ....   66
 Basis Dimension        Dim             ....  333

ORBITAL ENERGIES
----------------

  NO   OCC          E(Eh)            E(eV)
   0   2.0000     -20.558123      -559.4150
   1   2.0000     -15.591226      -424.2588
   2   2.0000     -11.337647      -308.5131
   3   2.0000     -11.305822      -307.6471
   4   2.0000     -11.285432      -307.0922
   5   2.0000     -11.280706      -306.9636
   6   2.0000     -11.241347      -305.8926
   7   2.0000     -11.234541      -305.7074
   8   2.0000     -11.233734      -305.6854
   9   2.0000      -1.397536       -38.0289
  10   2.0000      -1.305081       -35.5130
  11   2.0000      -1.102314       -29.9955
  12   2.0000      -1.014745       -27.6126
  13   2.0000      -0.947877       -25.7930
  14   2.0000      -0.916191       -24.9308
  15   2.0000      -0.851203       -23.1624
  16   2.0000      -0.799694       -21.7608
  17   2.0000      -0.731375       -19.9017
  18   2.0000      -0.706865       -19.2348
  19   2.0000      -0.690836       -18.7986
  20   2.0000      -0.661495       -18.0002
  21   2.0000      -0.634636       -17.2693
  22   2.0000      -0.592849       -16.1322
  23   2.0000      -0.584067       -15.8933
  24   2.0000      -0.559744       -15.2314
  25   2.0000      -0.543158       -14.7801
  26   2.0000      -0.534077       -14.5330
  27   2.0000      -0.510181       -13.8827
  28   2.0000      -0.477243       -12.9865
  29   2.0000      -0.431049       -11.7294
  30   2.0000      -0.408733       -11.1222
  31   2.0000      -0.400718       -10.9041
  32   2.0000      -0.386822       -10.5260
  33   0.0000       0.116307         3.1649
  34   0.0000       0.128571         3.4986
  35   0.0000       0.155323         4.2266
  36   0.0000       0.161260         4.3881
  37   0.0000       0.168210         4.5772

MULLIKEN ATOMIC CHARGES
-----------------------
   0 C :   -0.379293
   1 C :   -0.097762
   2 C :   -0.042571
   3 C :   -0.114919
   4 N :   -0.194412
   5 C :   -0.203402
   6 C :   -0.015668
   7 C :    0.075836
   8 O :   -0.262306
   9 H :    0.138278
  10 H :    0.133913
  11 H :    0.142642
  12 H :    0.117049
  13 H :    0.196468
  14 H :    0.145456
  15 H :    0.133222
  16 H :    0.141502
  17 H :    0.085967
Sum of atomic charges:   -0.0000000

LOEWDIN ATOMIC CHARGES
----------------------
   0 C :   -0.266364
   1 C :   -0.304052
   2 C :   -0.086638
   3 C :   -0.077492
   4 N :    0.157417
   5 C :   -0.228480
   6 C :   -0.238412
   7 C :   -0.292927
   8 O :    0.136375
   9 H :    0.129689
  10 H :    0.125544
  11 H :    0.132401
  12 H :    0.153601
  13 H :    0.129635
  14 H :    0.131680
  15 H :    0.129081
  16 H :    0.152437
  17 H :    0.116505

  Mayer bond orders larger than 0.1
B(  0-C ,  1-C ) :   0.8966 B(  0-C ,  9-H ) :   0.9340 B(  0-C , 10-H ) :   0.9320
B(  0-C , 11-H ) :   0.9343 B(  1-C ,  2-C ) :   1.0835 B(  1-C ,  4-N ) :   0.8048
B(  1-C , 12-H ) :   0.9601 B(  2-C ,  3-C ) :   2.6042 B(  3-C , 13-H ) :   0.8919
B(  4-N ,  5-C ) :   0.8979 B(  4-N ,  6-C ) :   0.8747 B(  5-C ,  6-C ) :   0.8726
B(  5-C , 14-H ) :   0.9180 B(  5-C , 15-H ) :   0.9164 B(  6-C ,  7-C ) :   0.8838
B(  6-C , 16-H ) :   0.9143 B(  7-C ,  8-O ) :   1.9750 B(  7-C , 17-H ) :   0.9481

MP2 TOTAL ENERGY:     -401.183028604 Eh
FINAL SINGLE POINT ENERGY      -401.183028603832

DIPOLE MOMENT
-------------
                                X             Y             Z
Electronic contribution:      0.44631      -6.22278       3.10409
Nuclear contribution   :     -0.38692       7.16718      -3.81613
                        -----------------------------------------
Total Dipole Moment    :      0.05940       0.94440      -0.71204
                        -----------------------------------------
Magnitude (a.u.)       :      1.18423
Magnitude (Debye)      :      3.01008

                             ****ORCA TERMINATED NORMALLY****
TOTAL RUN TIME: 0 days 0 hours 18 minutes 43 seconds 609 msec
