                         Program Version 3.0.3 - RELEASE   -
|  1> ! RI-MP2 RIJK def2-TZVP def2-TZVP/C def2-TZVP/JK TIGHTSCF
|  2> % maxcore 2000
|  3> % mp2 density relaxed end
|  4> *xyz 0 1
|  5>  C       -0.0042103241     1.3601655967     0.0604008726
|  6>  O       -0.0018153505    -0.0467952405     0.0839828017
|  7>  C       -1.2970900275    -0.6028951254    -0.0185407767
|  8>  C       -1.1817882850    -2.1025544560     0.0135858176
|  9>  C       -0.7285554805    -2.9152730863     1.2728053707
| 10>  C       -1.3612314428    -4.0638815554     0.4511208426
| 11>  C       -2.4307799037    -3.0443529785    -0.0134656779
| 12>  O       -0.4933756748    -4.1779495074    -0.6874613440
| 13>  C       -0.3173301619    -2.7907586984    -1.0567058528
| 14>  H        1.0334478169     1.6914353850     0.1464396085
| 15>  H       -0.4265820947     1.7529750370    -0.8783680793
| 16>  H       -0.5830059003     1.7820403826     0.8975751188
| 17>  H       -1.9349747092    -0.2493779397     0.8099279664
| 18>  H       -1.7812926310    -0.2795251481    -0.9581399646
| 19>  H        0.3397547246    -2.9819280393     1.4878893606
| 20>  H       -1.2956671470    -2.6515508451     2.1677957696
| 21>  H       -1.5873092305    -5.0536101421     0.8438493482
| 22>  H       -3.1630583308    -2.7970131743     0.7578318581
| 23>  H       -2.9183190246    -3.2328669938    -0.9734420453
| 24>  H       -0.6809128062    -2.6216199695    -2.0780587687
| 25>  H        0.7382646837    -2.5093349613    -0.9988296061
| 26> *
| 27>
| 28>                          ****END OF INPUT****

CARTESIAN COORDINATES (ANGSTROEM)
---------------------------------
  C     -0.004210    1.360166    0.060401
  O     -0.001815   -0.046795    0.083983
  C     -1.297090   -0.602895   -0.018541
  C     -1.181788   -2.102554    0.013586
  C     -0.728555   -2.915273    1.272805
  C     -1.361231   -4.063882    0.451121
  C     -2.430780   -3.044353   -0.013466
  O     -0.493376   -4.177950   -0.687461
  C     -0.317330   -2.790759   -1.056706
  H      1.033448    1.691435    0.146440
  H     -0.426582    1.752975   -0.878368
  H     -0.583006    1.782040    0.897575
  H     -1.934975   -0.249378    0.809928
  H     -1.781293   -0.279525   -0.958140
  H      0.339755   -2.981928    1.487889
  H     -1.295667   -2.651551    2.167796
  H     -1.587309   -5.053610    0.843849
  H     -3.163058   -2.797013    0.757832
  H     -2.918319   -3.232867   -0.973442
  H     -0.680913   -2.621620   -2.078059
  H      0.738265   -2.509335   -0.998830

 Total Charge           Charge          ....    0
 Multiplicity           Mult            ....    1
 Number of Electrons    NEL             ....   70
 Basis Dimension        Dim             ....  351

ORBITAL ENERGIES
----------------

  NO   OCC          E(Eh)            E(eV)
   0   2.0000     -20.560332      -559.4751
   1   2.0000     -20.542883      -559.0003
   2   2.0000     -11.281058      -306.9732
   3   2.0000     -11.280706      -306.9636
   4   2.0000     -11.274766      -306.8020
   5   2.0000     -11.265186      -306.5413
   6   2.0000     -11.243121      -305.9409
   7   2.0000     -11.226377      -305.4852
   8   2.0000     -11.222285      -305.3739
   9   2.0000      -1.382281       -37.6138
  10   2.0000      -1.373616       -37.3780
  11   2.0000      -1.127348       -30.6767
  12   2.0000      -1.006338       -27.3839
  13   2.0000      -0.944687       -25.7062
  14   2.0000      -0.908459       -24.7204
  15   2.0000      -0.883332       -24.0367
  16   2.0000      -0.780408       -21.2360
  17   2.0000      -0.754347       -20.5268
  18   2.0000      -0.694143       -18.8886
  19   2.0000      -0.669585       -18.2203
  20   2.0000      -0.657679       -17.8963
  21   2.0000      -0.641326       -17.4514
  22   2.0000      -0.636047       -17.3077
  23   2.0000      -0.597209       -16.2509
  24   2.0000      -0.563535       -15.3346
  25   2.0000      -0.545236       -14.8366
  26   2.0000      -0.530887       -14.4462
  27   2.0000      -0.515094       -14.0164
  28   2.0000      -0.512473       -13.9451
  29   2.0000      -0.499427       -13.5901
  30   2.0000      -0.466913       -12.7054
  31   2.0000      -0.446595       -12.1525
  32   2.0000      -0.438798       -11.9403
  33   2.0000      -0.419736       -11.4216
  34   2.0000      -0.392927       -10.6921
  35   0.0000       0.134459         3.6588
  36   0.0000       0.154165         4.1951
  37   0.0000       0.172458         4.6928
  38   0.0000       0.176708         4.8085
  39   0.0000       0.182277         4.9600

MULLIKEN ATOMIC CHARGES
-----------------------
   0 C :   -0.226786
   1 O :   -0.302044
   2 C :   -0.065423
   3 C :    0.059661
   4 C :   -0.254059
   5 C :    0.057444
   6 C :   -0.256053
   7 O :   -0.331828
   8 C :   -0.067586
   9 H :    0.141222
  10 H :    0.111727
  11 H :    0.111647
  12 H :    0.094527
  13 H :    0.099252
  14 H :    0.123476
  15 H :    0.117429
  16 H :    0.125837
  17 H :    0.122011
  18 H :    0.119825
  19 H :    0.099861
  20 H :    0.119861
Sum of atomic charges:    0.0000000

LOEWDIN ATOMIC CHARGES
----------------------
   0 C :   -0.361148
   1 O :    0.141117
   2 C :   -0.292509
   3 C :   -0.256929
   4 C :   -0.178147
   5 C :   -0.273155
   6 C :   -0.180608
   7 O :    0.147540
   8 C :   -0.238121
   9 H :    0.114067
  10 H :    0.101458
  11 H :    0.101655
  12 H :    0.125703
  13 H :    0.126889
  14 H :    0.133689
  15 H :    0.138741
  16 H :    0.128263
  17 H :    0.139119
  18 H :    0.131067
  19 H :    0.123496
  20 H :    0.127811

  Mayer bond orders larger than 0.1
B(  0-C ,  1-O ) :   0.9231 B(  0-C ,  9-H ) :   0.9395 B(  0-C , 10-H ) :   0.9374
B(  0-C , 11-H ) :   0.9374 B(  1-O ,  2-C ) :   0.9819 B(  2-C ,  3-C ) :   0.9064
B(  2-C , 12-H ) :   0.9172 B(  2-C , 13-H ) :   0.9161 B(  3-C ,  4-C ) :   0.8986
B(  3-C ,  6-C ) :   0.8904 B(  3-C ,  8-C ) :   0.9445 B(  4-C ,  5-C ) :   0.9307
B(  4-C , 14-H ) :   0.9157 B(  4-C , 15-H ) :   0.9246 B(  5-C ,  6-C ) :   0.9254
B(  5-C ,  7-O ) :   0.9356 B(  5-C , 16-H ) :   0.9236 B(  6-C , 17-H ) :   0.9253
B(  6-C , 18-H ) :   0.9178 B(  7-O ,  8-C ) :   0.9344 B(  8-C , 19-H ) :   0.9218
B(  8-C , 20-H ) :   0.9238

MP2 TOTAL ENERGY:     -423.487828245 Eh
FINAL SINGLE POINT ENERGY      -423.487828245315

DIPOLE MOMENT
-------------
                                X             Y             Z
Electronic contribution:      1.37992      -5.41405      -0.84817
Nuclear contribution   :     -1.97903       6.30021       1.13126
                        -----------------------------------------
Total Dipole Moment    :     -0.59911       0.88615       0.28310
                        -----------------------------------------
Magnitude (a.u.)       :      1.10650
Magnitude (Debye)      :      2.81250

                             ****ORCA TERMINATED NORMALLY****
TOTAL RUN TIME: 0 days 0 hours 17 minutes 36 seconds 122 msec
