                         Program Version 3.0.3 - RELEASE   -
|  1> ! RI-MP2 RIJK def2-TZVP def2-TZVP/C def2-TZVP/JK TIGHTSCF
|  2> % maxcore 2000
|  3> % mp2 density relaxed end
|  4> *xyz 0 1
|  5>  C        0.0130742103     1.5391942337    -0.0759355630
|  6>  C        0.0008406797     0.0122248070    -0.0099977888
|  7>  O        0.6229738983    -0.4573160514    -1.1958801410
|  8>  C        0.9361632714    -1.8378486663    -1.1491898119
|  9>  C        2.0015359610    -2.1222406418    -0.0907181917
| 10>  C        1.6110722357    -1.4613746815     1.2186648797
| 11>  C        0.6708695164    -0.5044886254     1.2358201098
| 12>  C        2.2657951605    -1.9015600196     2.4020664381
| 13>  C        2.8497529459    -2.3091605469     3.3743888091
| 14>  H        1.0416847151     1.9100421858    -0.0677439126
| 15>  H       -0.4719572932     1.8734977766    -0.9966945871
| 16>  H       -0.5221769355     1.9656120910     0.7774370285
| 17>  H       -1.0543824323    -0.3254436369     0.0022481427
| 18>  H        0.0305654039    -2.4293999513    -0.9358680526
| 19>  H        1.2872934314    -2.1079817259    -2.1489593134
| 20>  H        2.1112532093    -3.2025498193     0.0565103598
| 21>  H        2.9785278520    -1.7482920166    -0.4209673178
| 22>  H        0.3615409963    -0.0586298769     2.1765135274
| 23>  H        3.3562114139    -2.6559005243     4.2406838350
| 24> *
| 25>
| 26>                          ****END OF INPUT****

CARTESIAN COORDINATES (ANGSTROEM)
---------------------------------
  C      0.013074    1.539194   -0.075936
  C      0.000841    0.012225   -0.009998
  O      0.622974   -0.457316   -1.195880
  C      0.936163   -1.837849   -1.149190
  C      2.001536   -2.122241   -0.090718
  C      1.611072   -1.461375    1.218665
  C      0.670870   -0.504489    1.235820
  C      2.265795   -1.901560    2.402066
  C      2.849753   -2.309161    3.374389
  H      1.041685    1.910042   -0.067744
  H     -0.471957    1.873498   -0.996695
  H     -0.522177    1.965612    0.777437
  H     -1.054382   -0.325444    0.002248
  H      0.030565   -2.429400   -0.935868
  H      1.287293   -2.107982   -2.148959
  H      2.111253   -3.202550    0.056510
  H      2.978528   -1.748292   -0.420967
  H      0.361541   -0.058630    2.176514
  H      3.356211   -2.655901    4.240684

 Total Charge           Charge          ....    0
 Multiplicity           Mult            ....    1
 Number of Electrons    NEL             ....   66
 Basis Dimension        Dim             ....  339

ORBITAL ENERGIES
----------------

  NO   OCC          E(Eh)            E(eV)
   0   2.0000     -20.556829      -559.3798
   1   2.0000     -11.290681      -307.2351
   2   2.0000     -11.278577      -306.9057
   3   2.0000     -11.259354      -306.3826
   4   2.0000     -11.242792      -305.9319
   5   2.0000     -11.237216      -305.7802
   6   2.0000     -11.235077      -305.7220
   7   2.0000     -11.227433      -305.5140
   8   2.0000     -11.219140      -305.2883
   9   2.0000      -1.382183       -37.6111
  10   2.0000      -1.119725       -30.4693
  11   2.0000      -1.060231       -28.8504
  12   2.0000      -1.018847       -27.7242
  13   2.0000      -0.959428       -26.1074
  14   2.0000      -0.880711       -23.9654
  15   2.0000      -0.853118       -23.2145
  16   2.0000      -0.765388       -20.8273
  17   2.0000      -0.713249       -19.4085
  18   2.0000      -0.690528       -18.7902
  19   2.0000      -0.661774       -18.0078
  20   2.0000      -0.640527       -17.4296
  21   2.0000      -0.623265       -16.9599
  22   2.0000      -0.584860       -15.9148
  23   2.0000      -0.566406       -15.4127
  24   2.0000      -0.544786       -14.8244
  25   2.0000      -0.540629       -14.7113
  26   2.0000      -0.516046       -14.0423
  27   2.0000      -0.502344       -13.6695
  28   2.0000      -0.466194       -12.6858
  29   2.0000      -0.443636       -12.0719
  30   2.0000      -0.422566       -11.4986
  31   2.0000      -0.393020       -10.6946
  32   2.0000      -0.330791        -9.0013
  33   0.0000       0.108493         2.9523
  34   0.0000       0.143175         3.8960
  35   0.0000       0.156372         4.2551
  36   0.0000       0.164529         4.4771
  37   0.0000       0.169816         4.6209

MULLIKEN ATOMIC CHARGES
-----------------------
   0 C :   -0.377832
   1 C :    0.115011
   2 O :   -0.303422
   3 C :   -0.076612
   4 C :   -0.204199
   5 C :   -0.187637
   6 C :   -0.202309
   7 C :    0.061794
   8 C :   -0.115752
   9 H :    0.131480
  10 H :    0.141078
  11 H :    0.124200
  12 H :    0.084786
  13 H :    0.098356
  14 H :    0.130565
  15 H :    0.129698
  16 H :    0.123469
  17 H :    0.135065
  18 H :    0.192260
Sum of atomic charges:    0.0000000

LOEWDIN ATOMIC CHARGES
----------------------
   0 C :   -0.282659
   1 C :   -0.337898
   2 O :    0.182462
   3 C :   -0.304763
   4 C :   -0.212063
   5 C :   -0.162528
   6 C :   -0.091946
   7 C :   -0.071013
   8 C :   -0.082294
   9 H :    0.127890
  10 H :    0.127793
  11 H :    0.125784
  12 H :    0.143697
  13 H :    0.124698
  14 H :    0.130421
  15 H :    0.150996
  16 H :    0.149552
  17 H :    0.154478
  18 H :    0.127393

  Mayer bond orders larger than 0.1
B(  0-C ,  1-C ) :   0.9031 B(  0-C ,  9-H ) :   0.9327 B(  0-C , 10-H ) :   0.9354
B(  0-C , 11-H ) :   0.9336 B(  1-C ,  2-O ) :   0.9641 B(  1-C ,  6-C ) :   0.9257
B(  1-C , 12-H ) :   0.9342 B(  2-O ,  3-C ) :   0.9226 B(  3-C ,  4-C ) :   0.9489
B(  3-C , 13-H ) :   0.9340 B(  3-C , 14-H ) :   0.9293 B(  4-C ,  5-C ) :   0.9739
B(  4-C , 15-H ) :   0.9193 B(  4-C , 16-H ) :   0.8991 B(  5-C ,  6-C ) :   1.7075
B(  5-C ,  7-C ) :   1.1112 B(  5-C ,  8-C ) :  -0.1502 B(  6-C , 17-H ) :   0.9162
B(  7-C ,  8-C ) :   2.5659 B(  8-C , 18-H ) :   0.8871

MP2 TOTAL ENERGY:     -385.181635834 Eh
FINAL SINGLE POINT ENERGY      -385.181635834116

DIPOLE MOMENT
-------------
                                X             Y             Z
Electronic contribution:      2.32456      -2.85935       2.78028
Nuclear contribution   :     -2.47041       2.65299      -2.61598
                        -----------------------------------------
Total Dipole Moment    :     -0.14584      -0.20636       0.16430
                        -----------------------------------------
Magnitude (a.u.)       :      0.30141
Magnitude (Debye)      :      0.76613

                             ****ORCA TERMINATED NORMALLY****
TOTAL RUN TIME: 0 days 0 hours 18 minutes 30 seconds 969 msec
