                         Program Version 3.0.3 - RELEASE   -
|  1> ! RI-MP2 RIJK def2-TZVP def2-TZVP/C def2-TZVP/JK TIGHTSCF
|  2> % maxcore 2000
|  3> % mp2 density relaxed end
|  4> *xyz 0 1
|  5>  C       -0.1304225857     1.5232027798     0.0662966562
|  6>  C        0.0550543855     0.0121079591    -0.0917687601
|  7>  O        0.7052232433    -0.3024537790    -1.3242371822
|  8>  C        0.7813303430    -0.5911282227     1.0924394160
|  9>  C        0.0333451700    -1.1886430685     2.2752969792
| 10>  C        0.8385336450    -2.0676453678     1.3447700776
| 11>  C        0.1636437205    -3.0690059874     0.4356088323
| 12>  O        2.1012141756    -2.4852067143     1.8078940421
| 13>  H        0.8417343509     2.0239959430     0.1527041095
| 14>  H       -0.6500018385     1.9346600343    -0.8030782078
| 15>  H       -0.7073038018     1.7570592491     0.9668800318
| 16>  H       -0.9332061942    -0.4526178491    -0.1856430849
| 17>  H        1.6186036850    -0.0031519415    -1.2556882662
| 18>  H        1.7037795807    -0.0763244100     1.3564515161
| 19>  H        0.4333934425    -1.0069059174     3.2664281535
| 20>  H       -1.0504449423    -1.2337658954     2.2193152845
| 21>  H       -0.8155100831    -2.7207733948     0.0983407401
| 22>  H        0.7803860335    -3.2597591561    -0.4467017309
| 23>  H        0.0103872415    -4.0185116056     0.9640135726
| 24>  H        1.9659847386    -3.2585146757     2.3673166205
| 25> *
| 26>
| 27>                          ****END OF INPUT****

CARTESIAN COORDINATES (ANGSTROEM)
---------------------------------
  C     -0.130423    1.523203    0.066297
  C      0.055054    0.012108   -0.091769
  O      0.705223   -0.302454   -1.324237
  C      0.781330   -0.591128    1.092439
  C      0.033345   -1.188643    2.275297
  C      0.838534   -2.067645    1.344770
  C      0.163644   -3.069006    0.435609
  O      2.101214   -2.485207    1.807894
  H      0.841734    2.023996    0.152704
  H     -0.650002    1.934660   -0.803078
  H     -0.707304    1.757059    0.966880
  H     -0.933206   -0.452618   -0.185643
  H      1.618604   -0.003152   -1.255688
  H      1.703780   -0.076324    1.356452
  H      0.433393   -1.006906    3.266428
  H     -1.050445   -1.233766    2.219315
  H     -0.815510   -2.720773    0.098341
  H      0.780386   -3.259759   -0.446702
  H      0.010387   -4.018512    0.964014
  H      1.965985   -3.258515    2.367317

 Total Charge           Charge          ....    0
 Multiplicity           Mult            ....    1
 Number of Electrons    NEL             ....   64
 Basis Dimension        Dim             ....  320

ORBITAL ENERGIES
----------------

  NO   OCC          E(Eh)            E(eV)
   0   2.0000     -20.559163      -559.4433
   1   2.0000     -20.549057      -559.1683
   2   2.0000     -11.287351      -307.1444
   3   2.0000     -11.281468      -306.9843
   4   2.0000     -11.227280      -305.5098
   5   2.0000     -11.226060      -305.4766
   6   2.0000     -11.217600      -305.2464
   7   2.0000     -11.215860      -305.1991
   8   2.0000      -1.370391       -37.2902
   9   2.0000      -1.354758       -36.8648
  10   2.0000      -1.138150       -30.9706
  11   2.0000      -1.013745       -27.5854
  12   2.0000      -0.966991       -26.3132
  13   2.0000      -0.871540       -23.7158
  14   2.0000      -0.814637       -22.1674
  15   2.0000      -0.767612       -20.8878
  16   2.0000      -0.688968       -18.7478
  17   2.0000      -0.669906       -18.2291
  18   2.0000      -0.643249       -17.5037
  19   2.0000      -0.617322       -16.7982
  20   2.0000      -0.607090       -16.5198
  21   2.0000      -0.579087       -15.7578
  22   2.0000      -0.565238       -15.3809
  23   2.0000      -0.548416       -14.9232
  24   2.0000      -0.544690       -14.8218
  25   2.0000      -0.528706       -14.3868
  26   2.0000      -0.519334       -14.1318
  27   2.0000      -0.490860       -13.3570
  28   2.0000      -0.471172       -12.8213
  29   2.0000      -0.449154       -12.2221
  30   2.0000      -0.409198       -11.1348
  31   2.0000      -0.386232       -10.5099
  32   0.0000       0.134921         3.6714
  33   0.0000       0.141215         3.8427
  34   0.0000       0.157819         4.2945
  35   0.0000       0.175100         4.7647
  36   0.0000       0.187105         5.0914

MULLIKEN ATOMIC CHARGES
-----------------------
   0 C :   -0.388917
   1 C :    0.125357
   2 O :   -0.473207
   3 C :   -0.166130
   4 C :   -0.341492
   5 C :    0.233633
   6 C :   -0.372697
   7 O :   -0.464567
   8 H :    0.113262
   9 H :    0.145484
  10 H :    0.130966
  11 H :    0.076573
  12 H :    0.311297
  13 H :    0.119368
  14 H :    0.135908
  15 H :    0.122544
  16 H :    0.116388
  17 H :    0.143550
  18 H :    0.115977
  19 H :    0.316703
Sum of atomic charges:   -0.0000000

LOEWDIN ATOMIC CHARGES
----------------------
   0 C :   -0.297737
   1 C :   -0.356119
   2 O :   -0.022617
   3 C :   -0.188225
   4 C :   -0.195014
   5 C :   -0.370622
   6 C :   -0.271101
   7 O :    0.016479
   8 H :    0.121158
   9 H :    0.125331
  10 H :    0.127439
  11 H :    0.145074
  12 H :    0.174593
  13 H :    0.157280
  14 H :    0.135055
  15 H :    0.134719
  16 H :    0.129315
  17 H :    0.133080
  18 H :    0.123003
  19 H :    0.178908

  Mayer bond orders larger than 0.1
B(  0-C ,  1-C ) :   0.9388 B(  0-C ,  8-H ) :   0.9240 B(  0-C ,  9-H ) :   0.9441
B(  0-C , 10-H ) :   0.9338 B(  1-C ,  2-O ) :   0.9069 B(  1-C ,  3-C ) :   0.9353
B(  1-C , 11-H ) :   0.9139 B(  2-O , 12-H ) :   0.8442 B(  3-C ,  4-C ) :   0.9053
B(  3-C ,  5-C ) :   0.8209 B(  3-C , 13-H ) :   0.9078 B(  4-C ,  5-C ) :   0.9038
B(  4-C , 14-H ) :   0.9178 B(  4-C , 15-H ) :   0.9085 B(  5-C ,  6-C ) :   0.9615
B(  5-C ,  7-O ) :   1.0056 B(  6-C , 16-H ) :   0.9261 B(  6-C , 17-H ) :   0.9354
B(  6-C , 18-H ) :   0.9212 B(  7-O , 19-H ) :   0.8422

MP2 TOTAL ENERGY:     -385.499687249 Eh
FINAL SINGLE POINT ENERGY      -385.499687248575

DIPOLE MOMENT
-------------
                                X             Y             Z
Electronic contribution:      3.42681      -1.94109       0.03219
Nuclear contribution   :     -3.66732       1.90668       0.58656
                        -----------------------------------------
Total Dipole Moment    :     -0.24050      -0.03441       0.61874
                        -----------------------------------------
Magnitude (a.u.)       :      0.66473
Magnitude (Debye)      :      1.68962

                             ****ORCA TERMINATED NORMALLY****
TOTAL RUN TIME: 0 days 0 hours 12 minutes 46 seconds 415 msec
