                         Program Version 3.0.3 - RELEASE   -
|  1> ! RI-MP2 RIJK def2-TZVP def2-TZVP/C def2-TZVP/JK TIGHTSCF
|  2> % maxcore 2000
|  3> % mp2 density relaxed end
|  4> *xyz 0 1
|  5>  O       -0.5702221854     0.9040734438    -0.8101315090
|  6>  C        0.0608624171     1.1278445819     0.1902157380
|  7>  C        1.3579550055     1.9289377722     0.1808431446
|  8>  C        1.6264936414     2.6042193661    -1.1671973438
|  9>  O        2.6240984549     3.6037125156    -0.9971425506
| 10>  C        2.1695702338     4.5921590141    -0.1492875241
| 11>  O        1.8881882240     4.1199813240     1.1849529983
| 12>  C        1.3954753107     2.8816258914     1.3820156527
| 13>  O        1.0445957465     2.5348622342     2.4767566589
| 14>  H       -0.2500829004     0.7656427640     1.1880839952
| 15>  H        2.1580096540     1.2062111330     0.4007232606
| 16>  H        2.0020934136     1.8941686492    -1.9041705746
| 17>  H        0.7022265627     3.0473163539    -1.5629438638
| 18>  H        2.9581810794     5.3364680937    -0.0346606578
| 19>  H        1.2474240821     5.0592600829    -0.5288233746
| 20> *
| 21>
| 22>                          ****END OF INPUT****

CARTESIAN COORDINATES (ANGSTROEM)
---------------------------------
  O     -0.570222    0.904073   -0.810132
  C      0.060862    1.127845    0.190216
  C      1.357955    1.928938    0.180843
  C      1.626494    2.604219   -1.167197
  O      2.624098    3.603713   -0.997143
  C      2.169570    4.592159   -0.149288
  O      1.888188    4.119981    1.184953
  C      1.395475    2.881626    1.382016
  O      1.044596    2.534862    2.476757
  H     -0.250083    0.765643    1.188084
  H      2.158010    1.206211    0.400723
  H      2.002093    1.894169   -1.904171
  H      0.702227    3.047316   -1.562944
  H      2.958181    5.336468   -0.034661
  H      1.247424    5.059260   -0.528823

 Total Charge           Charge          ....    0
 Multiplicity           Mult            ....    1
 Number of Electrons    NEL             ....   68
 Basis Dimension        Dim             ....  315

ORBITAL ENERGIES
----------------

  NO   OCC          E(Eh)            E(eV)
   0   2.0000     -20.622536      -561.1677
   1   2.0000     -20.605300      -560.6987
   2   2.0000     -20.581933      -560.0629
   3   2.0000     -20.559334      -559.4479
   4   2.0000     -11.407727      -310.4200
   5   2.0000     -11.370924      -309.4186
   6   2.0000     -11.357170      -309.0443
   7   2.0000     -11.316513      -307.9380
   8   2.0000     -11.287544      -307.1497
   9   2.0000      -1.492804       -40.6213
  10   2.0000      -1.430440       -38.9243
  11   2.0000      -1.422066       -38.6964
  12   2.0000      -1.374091       -37.3909
  13   2.0000      -1.109075       -30.1795
  14   2.0000      -0.990368       -26.9493
  15   2.0000      -0.925896       -25.1949
  16   2.0000      -0.847352       -23.0576
  17   2.0000      -0.789460       -21.4823
  18   2.0000      -0.755302       -20.5528
  19   2.0000      -0.724869       -19.7247
  20   2.0000      -0.703611       -19.1462
  21   2.0000      -0.689432       -18.7604
  22   2.0000      -0.671559       -18.2740
  23   2.0000      -0.651693       -17.7335
  24   2.0000      -0.639638       -17.4054
  25   2.0000      -0.617462       -16.8020
  26   2.0000      -0.597702       -16.2643
  27   2.0000      -0.552981       -15.0474
  28   2.0000      -0.533387       -14.5142
  29   2.0000      -0.527225       -14.3465
  30   2.0000      -0.495837       -13.4924
  31   2.0000      -0.470770       -12.8103
  32   2.0000      -0.462602       -12.5880
  33   2.0000      -0.439824       -11.9682
  34   0.0000       0.101052         2.7498
  35   0.0000       0.125858         3.4248
  36   0.0000       0.145341         3.9549
  37   0.0000       0.171384         4.6636
  38   0.0000       0.175287         4.7698

MULLIKEN ATOMIC CHARGES
-----------------------
   0 O :   -0.262592
   1 C :    0.061492
   2 C :   -0.049200
   3 C :   -0.104376
   4 O :   -0.290833
   5 C :    0.072559
   6 O :   -0.206093
   7 C :    0.230831
   8 O :   -0.286352
   9 H :    0.134879
  10 H :    0.147861
  11 H :    0.148529
  12 H :    0.142912
  13 H :    0.149736
  14 H :    0.110646
Sum of atomic charges:   -0.0000000

LOEWDIN ATOMIC CHARGES
----------------------
   0 O :    0.145913
   1 C :   -0.254904
   2 C :   -0.232361
   3 C :   -0.271611
   4 O :    0.183179
   5 C :   -0.355523
   6 O :    0.258395
   7 C :   -0.458733
   8 O :    0.145207
   9 H :    0.128512
  10 H :    0.190682
  11 H :    0.140431
  12 H :    0.134535
  13 H :    0.130103
  14 H :    0.116178

  Mayer bond orders larger than 0.1
B(  0-O ,  1-C ) :   1.9716 B(  1-C ,  2-C ) :   0.8588 B(  1-C ,  9-H ) :   0.9292
B(  2-C ,  3-C ) :   0.9026 B(  2-C ,  7-C ) :   0.9016 B(  2-C , 10-H ) :   0.8680
B(  3-C ,  4-O ) :   0.8865 B(  3-C , 11-H ) :   0.9184 B(  3-C , 12-H ) :   0.9450
B(  4-O ,  5-C ) :   1.0109 B(  5-C ,  6-O ) :   0.8648 B(  5-C , 13-H ) :   0.9275
B(  5-C , 14-H ) :   0.9265 B(  6-O ,  7-C ) :   1.1408 B(  7-C ,  8-O ) :   1.9846

MP2 TOTAL ENERGY:     -494.167794190 Eh
FINAL SINGLE POINT ENERGY      -494.167794190242

DIPOLE MOMENT
-------------
                                X             Y             Z
Electronic contribution:     -0.54134      -0.63702       2.92606
Nuclear contribution   :      0.99819       0.93511      -3.68226
                        -----------------------------------------
Total Dipole Moment    :      0.45685       0.29809      -0.75620
                        -----------------------------------------
Magnitude (a.u.)       :      0.93242
Magnitude (Debye)      :      2.37003

                             ****ORCA TERMINATED NORMALLY****
TOTAL RUN TIME: 0 days 0 hours 14 minutes 18 seconds 259 msec
