                         Program Version 3.0.3 - RELEASE   -
|  1> ! RI-MP2 RIJK def2-TZVP def2-TZVP/C def2-TZVP/JK TIGHTSCF
|  2> % maxcore 2000
|  3> % mp2 density relaxed end
|  4> *xyz 0 1
|  5>  O       -0.0650888798     1.4213835917    -0.0425187651
|  6>  C        0.0489643055     0.0196226494    -0.0316748539
|  7>  C        0.2060475481    -0.6053024888     1.3847965033
|  8>  O       -1.2388136528    -0.7070660091     1.4889109983
|  9>  C       -1.3610456383    -0.6047519016     0.0421078152
| 10>  C       -1.4855153703    -1.9665143781    -0.5960747953
| 11>  C       -0.6910478421    -3.0029713154    -0.2890923511
| 12>  C        0.4321255918    -2.9997297162     0.6558278164
| 13>  C        0.8603723400    -1.9641896239     1.3944225602
| 14>  H        0.8011161279     1.7968039461     0.1477049674
| 15>  H        0.7227328610    -0.3527829380    -0.8115814780
| 16>  H        0.6123673261     0.0575225854     2.1555914865
| 17>  H       -2.1739267242     0.0685898797    -0.2413139788
| 18>  H       -2.2779840021    -2.1032157895    -1.3259069277
| 19>  H       -0.8749697887    -3.9508879648    -0.7881012966
| 20>  H        0.9634245998    -3.9435164302     0.7478718336
| 21>  H        1.7180774281    -2.0996704466     2.0471818755
| 22> *
| 23>
| 24>                          ****END OF INPUT****

CARTESIAN COORDINATES (ANGSTROEM)
---------------------------------
  O     -0.065089    1.421384   -0.042519
  C      0.048964    0.019623   -0.031675
  C      0.206048   -0.605302    1.384797
  O     -1.238814   -0.707066    1.488911
  C     -1.361046   -0.604752    0.042108
  C     -1.485515   -1.966514   -0.596075
  C     -0.691048   -3.002971   -0.289092
  C      0.432126   -2.999730    0.655828
  C      0.860372   -1.964190    1.394423
  H      0.801116    1.796804    0.147705
  H      0.722733   -0.352783   -0.811581
  H      0.612367    0.057523    2.155591
  H     -2.173927    0.068590   -0.241314
  H     -2.277984   -2.103216   -1.325907
  H     -0.874970   -3.950888   -0.788101
  H      0.963425   -3.943516    0.747872
  H      1.718077   -2.099670    2.047182

 Total Charge           Charge          ....    0
 Multiplicity           Mult            ....    1
 Number of Electrons    NEL             ....   66
 Basis Dimension        Dim             ....  327

ORBITAL ENERGIES
----------------

  NO   OCC          E(Eh)            E(eV)
   0   2.0000     -20.569152      -559.7151
   1   2.0000     -20.548927      -559.1647
   2   2.0000     -11.291517      -307.2578
   3   2.0000     -11.290465      -307.2292
   4   2.0000     -11.288077      -307.1642
   5   2.0000     -11.242183      -305.9154
   6   2.0000     -11.240385      -305.8664
   7   2.0000     -11.238837      -305.8243
   8   2.0000     -11.237694      -305.7932
   9   2.0000      -1.398766       -38.0624
  10   2.0000      -1.358356       -36.9627
  11   2.0000      -1.105526       -30.0829
  12   2.0000      -1.045496       -28.4494
  13   2.0000      -0.996441       -27.1145
  14   2.0000      -0.907736       -24.7007
  15   2.0000      -0.870212       -23.6797
  16   2.0000      -0.749388       -20.3919
  17   2.0000      -0.732352       -19.9283
  18   2.0000      -0.701350       -19.0847
  19   2.0000      -0.686693       -18.6859
  20   2.0000      -0.670395       -18.2424
  21   2.0000      -0.626829       -17.0569
  22   2.0000      -0.611421       -16.6376
  23   2.0000      -0.596624       -16.2350
  24   2.0000      -0.558342       -15.1933
  25   2.0000      -0.536646       -14.6029
  26   2.0000      -0.520766       -14.1708
  27   2.0000      -0.510205       -13.8834
  28   2.0000      -0.464732       -12.6460
  29   2.0000      -0.453802       -12.3486
  30   2.0000      -0.427585       -11.6352
  31   2.0000      -0.416055       -11.3214
  32   2.0000      -0.318420        -8.6647
  33   0.0000       0.074805         2.0356
  34   0.0000       0.136438         3.7127
  35   0.0000       0.149990         4.0814
  36   0.0000       0.168805         4.5934
  37   0.0000       0.179408         4.8819

MULLIKEN ATOMIC CHARGES
-----------------------
   0 O :   -0.459049
   1 C :   -0.014123
   2 C :    0.181167
   3 O :   -0.333427
   4 C :    0.226550
   5 C :   -0.296457
   6 C :   -0.102537
   7 C :   -0.099071
   8 C :   -0.293406
   9 H :    0.319956
  10 H :    0.115218
  11 H :    0.126648
  12 H :    0.128688
  13 H :    0.125493
  14 H :    0.125874
  15 H :    0.125851
  16 H :    0.122624
Sum of atomic charges:   -0.0000000

LOEWDIN ATOMIC CHARGES
----------------------
   0 O :   -0.002191
   1 C :   -0.287370
   2 C :   -0.252244
   3 O :    0.172473
   4 C :   -0.236148
   5 C :   -0.134683
   6 C :   -0.151509
   7 C :   -0.151449
   8 C :   -0.139359
   9 H :    0.178452
  10 H :    0.131845
  11 H :    0.137889
  12 H :    0.144741
  13 H :    0.145398
  14 H :    0.149865
  15 H :    0.149843
  16 H :    0.144446

  Mayer bond orders larger than 0.1
B(  0-O ,  1-C ) :   1.0102 B(  0-O ,  9-H ) :   0.8427 B(  1-C ,  2-C ) :   0.9329
B(  1-C ,  4-C ) :   0.8919 B(  1-C , 10-H ) :   0.9465 B(  2-C ,  3-O ) :   0.9284
B(  2-C ,  8-C ) :   0.8680 B(  2-C , 11-H ) :   0.9180 B(  3-O ,  4-C ) :   0.9272
B(  4-C ,  5-C ) :   0.8871 B(  4-C , 12-H ) :   0.9220 B(  5-C ,  6-C ) :   1.7486
B(  5-C , 13-H ) :   0.9223 B(  6-C ,  7-C ) :   0.9865 B(  6-C , 14-H ) :   0.9268
B(  7-C ,  8-C ) :   1.7505 B(  7-C , 15-H ) :   0.9279 B(  8-C , 16-H ) :   0.9191

MP2 TOTAL ENERGY:     -421.086588220 Eh
FINAL SINGLE POINT ENERGY      -421.086588220454

DIPOLE MOMENT
-------------
                                X             Y             Z
Electronic contribution:     -1.29708       1.62539       1.15920
Nuclear contribution   :      2.25128      -1.80559      -1.55593
                        -----------------------------------------
Total Dipole Moment    :      0.95420      -0.18020      -0.39673
                        -----------------------------------------
Magnitude (a.u.)       :      1.04899
Magnitude (Debye)      :      2.66631

                             ****ORCA TERMINATED NORMALLY****
TOTAL RUN TIME: 0 days 0 hours 16 minutes 43 seconds 659 msec
