                         Program Version 3.0.3 - RELEASE   -
|  1> ! RI-MP2 RIJK def2-TZVP def2-TZVP/C def2-TZVP/JK TIGHTSCF
|  2> % maxcore 2000
|  3> % mp2 density relaxed end
|  4> *xyz 0 1
|  5>  C        0.0127580532     1.4629289229    -0.0389615937
|  6>  C        1.2899553234     0.7083440455     0.0499147204
|  7>  C        1.8553830378     0.3336475177     1.4153461887
|  8>  C        1.4602932147    -1.1955506882     1.5011849612
|  9>  C        1.6754634702    -1.6058711632     2.9545042631
| 10>  C        1.0656373065    -0.3523841063     3.6506405125
| 11>  C        0.6691447099     0.4703503259     2.4196041252
| 12>  C        0.0290662873    -0.5603285991     1.4305782604
| 13>  N       -0.0146949251    -0.0093912064     0.0505008089
| 14>  H       -0.3303665206     2.0674397209     0.7928015731
| 15>  H       -0.2960528787     1.8344758574    -1.0124699801
| 16>  H        1.9208950534     0.5930051454    -0.8277584884
| 17>  H        2.8591349321     0.6764685222     1.6728903691
| 18>  H        1.7716270468    -1.8791097934     0.7097796719
| 19>  H        1.1501252500    -2.5312438217     3.2093115972
| 20>  H        2.7331936194    -1.7514146497     3.1936575220
| 21>  H        0.1989700935    -0.5954844766     4.2735452383
| 22>  H        1.7858771103     0.1757533930     4.2830593682
| 23>  H        0.2084380846     1.4353718198     2.6276605192
| 24>  H       -0.8673264588    -1.1249011961     1.6929943328
| 25> *
| 26>
| 27>                          ****END OF INPUT****

CARTESIAN COORDINATES (ANGSTROEM)
---------------------------------
  C      0.012758    1.462929   -0.038962
  C      1.289955    0.708344    0.049915
  C      1.855383    0.333648    1.415346
  C      1.460293   -1.195551    1.501185
  C      1.675463   -1.605871    2.954504
  C      1.065637   -0.352384    3.650641
  C      0.669145    0.470350    2.419604
  C      0.029066   -0.560329    1.430578
  N     -0.014695   -0.009391    0.050501
  H     -0.330367    2.067440    0.792802
  H     -0.296053    1.834476   -1.012470
  H      1.920895    0.593005   -0.827758
  H      2.859135    0.676469    1.672890
  H      1.771627   -1.879110    0.709780
  H      1.150125   -2.531244    3.209312
  H      2.733194   -1.751415    3.193658
  H      0.198970   -0.595484    4.273545
  H      1.785877    0.175753    4.283059
  H      0.208438    1.435372    2.627661
  H     -0.867326   -1.124901    1.692994

 Total Charge           Charge          ....    0
 Multiplicity           Mult            ....    1
 Number of Electrons    NEL             ....   66
 Basis Dimension        Dim             ....  345

ORBITAL ENERGIES
----------------

  NO   OCC          E(Eh)            E(eV)
   0   2.0000     -15.550948      -423.1628
   1   2.0000     -11.256162      -306.2957
   2   2.0000     -11.251906      -306.1799
   3   2.0000     -11.249986      -306.1277
   4   2.0000     -11.236871      -305.7708
   5   2.0000     -11.230663      -305.6019
   6   2.0000     -11.230281      -305.5915
   7   2.0000     -11.221970      -305.3653
   8   2.0000     -11.219532      -305.2990
   9   2.0000      -1.292426       -35.1687
  10   2.0000      -1.156918       -31.4813
  11   2.0000      -0.988427       -26.8965
  12   2.0000      -0.959212       -26.1015
  13   2.0000      -0.942189       -25.6383
  14   2.0000      -0.847500       -23.0617
  15   2.0000      -0.772878       -21.0311
  16   2.0000      -0.761017       -20.7083
  17   2.0000      -0.731567       -19.9070
  18   2.0000      -0.688330       -18.7304
  19   2.0000      -0.678665       -18.4674
  20   2.0000      -0.615855       -16.7583
  21   2.0000      -0.601085       -16.3564
  22   2.0000      -0.568631       -15.4732
  23   2.0000      -0.540120       -14.6974
  24   2.0000      -0.494396       -13.4532
  25   2.0000      -0.486222       -13.2308
  26   2.0000      -0.480207       -13.0671
  27   2.0000      -0.476772       -12.9736
  28   2.0000      -0.466761       -12.7012
  29   2.0000      -0.450600       -12.2614
  30   2.0000      -0.425056       -11.5664
  31   2.0000      -0.401307       -10.9201
  32   2.0000      -0.356353        -9.6969
  33   0.0000       0.139743         3.8026
  34   0.0000       0.156393         4.2557
  35   0.0000       0.166470         4.5299
  36   0.0000       0.175884         4.7860
  37   0.0000       0.185811         5.0562

MULLIKEN ATOMIC CHARGES
-----------------------
   0 C :   -0.150866
   1 C :   -0.129264
   2 C :   -0.061542
   3 C :   -0.116199
   4 C :   -0.240508
   5 C :   -0.252154
   6 C :   -0.130393
   7 C :    0.022735
   8 N :   -0.253218
   9 H :    0.122808
  10 H :    0.122733
  11 H :    0.125588
  12 H :    0.123245
  13 H :    0.120842
  14 H :    0.118672
  15 H :    0.115713
  16 H :    0.117762
  17 H :    0.116376
  18 H :    0.112648
  19 H :    0.115024
Sum of atomic charges:    0.0000000

LOEWDIN ATOMIC CHARGES
----------------------
   0 C :   -0.240533
   1 C :   -0.218575
   2 C :   -0.153078
   3 C :   -0.159872
   4 C :   -0.229752
   5 C :   -0.224429
   6 C :   -0.183582
   7 C :   -0.191783
   8 N :    0.126315
   9 H :    0.123945
  10 H :    0.128619
  11 H :    0.137963
  12 H :    0.138836
  13 H :    0.140048
  14 H :    0.134557
  15 H :    0.133994
  16 H :    0.134603
  17 H :    0.133628
  18 H :    0.134160
  19 H :    0.134936

  Mayer bond orders larger than 0.1
B(  0-C ,  1-C ) :   0.9666 B(  0-C ,  8-N ) :   0.8935 B(  0-C ,  9-H ) :   0.9007
B(  0-C , 10-H ) :   0.9302 B(  1-C ,  2-C ) :   0.9236 B(  1-C ,  8-N ) :   0.9121
B(  1-C , 11-H ) :   0.9098 B(  2-C ,  3-C ) :   0.8854 B(  2-C ,  6-C ) :   0.8766
B(  2-C , 12-H ) :   0.9109 B(  3-C ,  4-C ) :   0.9283 B(  3-C ,  7-C ) :   0.8584
B(  3-C , 13-H ) :   0.9175 B(  4-C ,  5-C ) :   0.9838 B(  4-C , 14-H ) :   0.9250
B(  4-C , 15-H ) :   0.9240 B(  5-C ,  6-C ) :   0.9214 B(  5-C , 16-H ) :   0.9270
B(  5-C , 17-H ) :   0.9228 B(  6-C ,  7-C ) :   0.8713 B(  6-C , 18-H ) :   0.9263
B(  7-C ,  8-N ) :   0.8898 B(  7-C , 19-H ) :   0.9299

MP2 TOTAL ENERGY:     -365.316381507 Eh
FINAL SINGLE POINT ENERGY      -365.316381507494

DIPOLE MOMENT
-------------
                                X             Y             Z
Electronic contribution:     -0.95264       0.42133      -3.31825
Nuclear contribution   :      1.26102      -0.16990       3.81436
                        -----------------------------------------
Total Dipole Moment    :      0.30838       0.25143       0.49611
                        -----------------------------------------
Magnitude (a.u.)       :      0.63596
Magnitude (Debye)      :      1.61648

                             ****ORCA TERMINATED NORMALLY****
TOTAL RUN TIME: 0 days 0 hours 20 minutes 30 seconds 793 msec
