                         Program Version 3.0.3 - RELEASE   -
|  1> ! RI-MP2 RIJK def2-TZVP def2-TZVP/C def2-TZVP/JK TIGHTSCF
|  2> % maxcore 2000
|  3> % mp2 density relaxed end
|  4> *xyz 0 1
|  5>  O       -1.2476153510     0.8779728515    -0.3873532991
|  6>  C       -0.2932374014    -0.0680281226    -0.1803197104
|  7>  C        0.8270668005    -0.4517848043    -0.8687462015
|  8>  C        1.4179144309    -1.5286553952    -0.1218114444
|  9>  C        0.6350811743    -1.7480910832     0.9829278695
| 10>  N       -0.4153974711    -0.8466783396     0.9382671498
| 11>  N        0.7374207872    -2.5997473288     2.0956615313
| 12>  C        0.0836167763    -3.9220325156     2.0260893167
| 13>  C        1.5628342228    -3.7901879870     1.9571915476
| 14>  H       -1.0338732789     1.3435145607    -1.2012591651
| 15>  H        1.1873754442    -0.0275643766    -1.7930802607
| 16>  H        2.3265314318    -2.0528752760    -0.3715718566
| 17>  H       -1.1168059279    -0.7347133075     1.6495508461
| 18>  H       -0.3995403541    -4.2464384740     2.9425734298
| 19>  H       -0.4347597394    -4.1730006169     1.1042203290
| 20>  H        2.0259772761    -3.9776473730     0.9918912424
| 21>  H        2.1800714898    -4.0295494021     2.8178545057
| 22> *
| 23>
| 24>                          ****END OF INPUT****

CARTESIAN COORDINATES (ANGSTROEM)
---------------------------------
  O     -1.247615    0.877973   -0.387353
  C     -0.293237   -0.068028   -0.180320
  C      0.827067   -0.451785   -0.868746
  C      1.417914   -1.528655   -0.121811
  C      0.635081   -1.748091    0.982928
  N     -0.415397   -0.846678    0.938267
  N      0.737421   -2.599747    2.095662
  C      0.083617   -3.922033    2.026089
  C      1.562834   -3.790188    1.957192
  H     -1.033873    1.343515   -1.201259
  H      1.187375   -0.027564   -1.793080
  H      2.326531   -2.052875   -0.371572
  H     -1.116806   -0.734713    1.649551
  H     -0.399540   -4.246438    2.942573
  H     -0.434760   -4.173001    1.104220
  H      2.025977   -3.977647    0.991891
  H      2.180071   -4.029549    2.817855

 Total Charge           Charge          ....    0
 Multiplicity           Mult            ....    1
 Number of Electrons    NEL             ....   66
 Basis Dimension        Dim             ....  327

ORBITAL ENERGIES
----------------

  NO   OCC          E(Eh)            E(eV)
   0   2.0000     -20.594234      -560.3976
   1   2.0000     -15.592392      -424.2906
   2   2.0000     -15.574728      -423.8099
   3   2.0000     -11.314046      -307.8709
   4   2.0000     -11.279556      -306.9323
   5   2.0000     -11.264195      -306.5143
   6   2.0000     -11.263376      -306.4920
   7   2.0000     -11.202840      -304.8448
   8   2.0000     -11.198920      -304.7381
   9   2.0000      -1.415233       -38.5104
  10   2.0000      -1.306964       -35.5643
  11   2.0000      -1.256580       -34.1933
  12   2.0000      -1.041922       -28.3521
  13   2.0000      -0.998476       -27.1699
  14   2.0000      -0.886381       -24.1197
  15   2.0000      -0.852137       -23.1878
  16   2.0000      -0.805126       -21.9086
  17   2.0000      -0.780922       -21.2500
  18   2.0000      -0.733691       -19.9648
  19   2.0000      -0.684009       -18.6128
  20   2.0000      -0.651317       -17.7232
  21   2.0000      -0.644812       -17.5462
  22   2.0000      -0.615762       -16.7557
  23   2.0000      -0.592474       -16.1220
  24   2.0000      -0.567430       -15.4406
  25   2.0000      -0.538330       -14.6487
  26   2.0000      -0.535216       -14.5640
  27   2.0000      -0.523941       -14.2572
  28   2.0000      -0.487666       -13.2701
  29   2.0000      -0.477755       -13.0004
  30   2.0000      -0.411021       -11.1844
  31   2.0000      -0.350452        -9.5363
  32   2.0000      -0.262763        -7.1501
  33   0.0000       0.136508         3.7146
  34   0.0000       0.155728         4.2376
  35   0.0000       0.161226         4.3872
  36   0.0000       0.175833         4.7847
  37   0.0000       0.189842         5.1659

MULLIKEN ATOMIC CHARGES
-----------------------
   0 O :   -0.440846
   1 C :    0.233266
   2 C :   -0.249687
   3 C :   -0.254821
   4 C :    0.174758
   5 N :   -0.278894
   6 N :   -0.231814
   7 C :   -0.155647
   8 C :   -0.171129
   9 H :    0.341824
  10 H :    0.130192
  11 H :    0.125938
  12 H :    0.249179
  13 H :    0.129612
  14 H :    0.131835
  15 H :    0.128761
  16 H :    0.137473
Sum of atomic charges:   -0.0000000

LOEWDIN ATOMIC CHARGES
----------------------
   0 O :    0.054010
   1 C :   -0.367805
   2 C :   -0.217883
   3 C :   -0.192873
   4 C :   -0.299974
   5 N :    0.213436
   6 N :    0.134167
   7 C :   -0.245134
   8 C :   -0.249604
   9 H :    0.199195
  10 H :    0.135453
  11 H :    0.137713
  12 H :    0.196353
  13 H :    0.123394
  14 H :    0.126222
  15 H :    0.126913
  16 H :    0.126417

  Mayer bond orders larger than 0.1
B(  0-O ,  1-C ) :   1.0989 B(  0-O ,  9-H ) :   0.8311 B(  1-C ,  2-C ) :   1.5035
B(  1-C ,  5-N ) :   1.1333 B(  2-C ,  3-C ) :   1.1550 B(  2-C , 10-H ) :   0.9200
B(  3-C ,  4-C ) :   1.5148 B(  3-C , 11-H ) :   0.9304 B(  4-C ,  5-N ) :   1.0677
B(  4-C ,  6-N ) :   1.0629 B(  5-N , 12-H ) :   0.8626 B(  6-N ,  7-C ) :   0.8329
B(  6-N ,  8-C ) :   0.8906 B(  7-C ,  8-C ) :   0.9552 B(  7-C , 13-H ) :   0.9273
B(  7-C , 14-H ) :   0.9123 B(  8-C , 15-H ) :   0.9260 B(  8-C , 16-H ) :   0.9250

MP2 TOTAL ENERGY:     -417.291756915 Eh
FINAL SINGLE POINT ENERGY      -417.291756915175

DIPOLE MOMENT
-------------
                                X             Y             Z
Electronic contribution:     -2.21114       5.00078      -0.66145
Nuclear contribution   :      1.98870      -5.24088       0.42848
                        -----------------------------------------
Total Dipole Moment    :     -0.22243      -0.24010      -0.23297
                        -----------------------------------------
Magnitude (a.u.)       :      0.40174
Magnitude (Debye)      :      1.02114

                             ****ORCA TERMINATED NORMALLY****
TOTAL RUN TIME: 0 days 0 hours 14 minutes 43 seconds 194 msec
