                         Program Version 3.0.3 - RELEASE   -
|  1> ! RI-MP2 RIJK def2-TZVP def2-TZVP/C def2-TZVP/JK TIGHTSCF
|  2> % maxcore 2000
|  3> % mp2 density relaxed end
|  4> *xyz 0 1
|  5>  C       -0.0422466648     1.4258250490    -0.0383809007
|  6>  O       -0.0056316915     0.0206898387     0.0025140493
|  7>  C        0.6793962913    -0.5406195409    -1.0962384317
|  8>  C        0.6791519039    -2.0545849983    -0.9301152106
|  9>  C        1.3156646547    -2.7633746168    -2.1085358032
| 10>  O        2.6765766005    -2.3788957613    -2.2548511358
| 11>  C        3.4114192171    -3.5225754474    -2.6821648334
| 12>  C        2.3558062624    -4.6460951141    -2.7327481839
| 13>  O        1.3188440777    -4.1552103305    -1.8996866052
| 14>  H        0.9689518362     1.8632089935    -0.0253109925
| 15>  H       -0.5615574252     1.7967713478    -0.9369835126
| 16>  H       -0.5850649971     1.7659515317     0.8470594925
| 17>  H        0.1845609198    -0.2553949720    -2.0421397255
| 18>  H        1.7129683442    -0.1641242544    -1.1461392566
| 19>  H        1.2237421958    -2.3321727033    -0.0229491693
| 20>  H       -0.3518781244    -2.4078222373    -0.8266462577
| 21>  H        0.7780751431    -2.5317480722    -3.0497585277
| 22>  H        3.8726147110    -3.3416778362    -3.6603722557
| 23>  H        4.2036321741    -3.7286430410    -1.9532504233
| 24>  H        1.9920668238    -4.8025820218    -3.7595961066
| 25>  H        2.7044444074    -5.5994894233    -2.3307944400
| 26> *
| 27>
| 28>                          ****END OF INPUT****

CARTESIAN COORDINATES (ANGSTROEM)
---------------------------------
  C     -0.042247    1.425825   -0.038381
  O     -0.005632    0.020690    0.002514
  C      0.679396   -0.540620   -1.096238
  C      0.679152   -2.054585   -0.930115
  C      1.315665   -2.763375   -2.108536
  O      2.676577   -2.378896   -2.254851
  C      3.411419   -3.522575   -2.682165
  C      2.355806   -4.646095   -2.732748
  O      1.318844   -4.155210   -1.899687
  H      0.968952    1.863209   -0.025311
  H     -0.561557    1.796771   -0.936984
  H     -0.585065    1.765952    0.847059
  H      0.184561   -0.255395   -2.042140
  H      1.712968   -0.164124   -1.146139
  H      1.223742   -2.332173   -0.022949
  H     -0.351878   -2.407822   -0.826646
  H      0.778075   -2.531748   -3.049759
  H      3.872615   -3.341678   -3.660372
  H      4.203632   -3.728643   -1.953250
  H      1.992067   -4.802582   -3.759596
  H      2.704444   -5.599489   -2.330794

 Total Charge           Charge          ....    0
 Multiplicity           Mult            ....    1
 Number of Electrons    NEL             ....   72
 Basis Dimension        Dim             ....  351

ORBITAL ENERGIES
----------------

  NO   OCC          E(Eh)            E(eV)
   0   2.0000     -20.567400      -559.6674
   1   2.0000     -20.561171      -559.4979
   2   2.0000     -20.551305      -559.2294
   3   2.0000     -11.332357      -308.3691
   4   2.0000     -11.286144      -307.1116
   5   2.0000     -11.283735      -307.0461
   6   2.0000     -11.270834      -306.6950
   7   2.0000     -11.267086      -306.5930
   8   2.0000     -11.217766      -305.2509
   9   2.0000      -1.441084       -39.2139
  10   2.0000      -1.372627       -37.3511
  11   2.0000      -1.333622       -36.2897
  12   2.0000      -1.070680       -29.1347
  13   2.0000      -0.999755       -27.2047
  14   2.0000      -0.923336       -25.1253
  15   2.0000      -0.860395       -23.4125
  16   2.0000      -0.853255       -23.2183
  17   2.0000      -0.806743       -21.9526
  18   2.0000      -0.716107       -19.4863
  19   2.0000      -0.692814       -18.8524
  20   2.0000      -0.668301       -18.1854
  21   2.0000      -0.649680       -17.6787
  22   2.0000      -0.638064       -17.3626
  23   2.0000      -0.623065       -16.9545
  24   2.0000      -0.611586       -16.6421
  25   2.0000      -0.590534       -16.0693
  26   2.0000      -0.563382       -15.3304
  27   2.0000      -0.534177       -14.5357
  28   2.0000      -0.517265       -14.0755
  29   2.0000      -0.506091       -13.7714
  30   2.0000      -0.502016       -13.6605
  31   2.0000      -0.486912       -13.2495
  32   2.0000      -0.473482       -12.8841
  33   2.0000      -0.444802       -12.1037
  34   2.0000      -0.423384       -11.5209
  35   2.0000      -0.418998       -11.4015
  36   0.0000       0.142923         3.8891
  37   0.0000       0.150730         4.1016
  38   0.0000       0.169421         4.6102
  39   0.0000       0.175444         4.7741
  40   0.0000       0.190897         5.1946

MULLIKEN ATOMIC CHARGES
-----------------------
   0 C :   -0.210476
   1 O :   -0.301186
   2 C :   -0.078787
   3 C :   -0.120137
   4 C :    0.153120
   5 O :   -0.316065
   6 C :   -0.028918
   7 C :   -0.093480
   8 O :   -0.296297
   9 H :    0.111007
  10 H :    0.108637
  11 H :    0.138012
  12 H :    0.082842
  13 H :    0.112070
  14 H :    0.114557
  15 H :    0.123522
  16 H :    0.062692
  17 H :    0.101119
  18 H :    0.104624
  19 H :    0.102740
  20 H :    0.130403
Sum of atomic charges:    0.0000000

LOEWDIN ATOMIC CHARGES
----------------------
   0 C :   -0.363400
   1 O :    0.133348
   2 C :   -0.326607
   3 C :   -0.240563
   4 C :   -0.398503
   5 O :    0.160991
   6 C :   -0.302778
   7 C :   -0.311936
   8 O :    0.182001
   9 H :    0.101166
  10 H :    0.100334
  11 H :    0.112974
  12 H :    0.118102
  13 H :    0.123535
  14 H :    0.147609
  15 H :    0.149301
  16 H :    0.124231
  17 H :    0.120570
  18 H :    0.121646
  19 H :    0.119000
  20 H :    0.128978

  Mayer bond orders larger than 0.1
B(  0-C ,  1-O ) :   0.9210 B(  0-C ,  9-H ) :   0.9368 B(  0-C , 10-H ) :   0.9370
B(  0-C , 11-H ) :   0.9396 B(  1-O ,  2-C ) :   0.9510 B(  2-C ,  3-C ) :   0.9424
B(  2-C , 12-H ) :   0.9205 B(  2-C , 13-H ) :   0.9228 B(  3-C ,  4-C ) :   0.9207
B(  3-C , 14-H ) :   0.9104 B(  3-C , 15-H ) :   0.9247 B(  4-C ,  5-O ) :   0.9550
B(  4-C ,  8-O ) :   1.0054 B(  4-C , 16-H ) :   0.9247 B(  5-O ,  6-C ) :   0.9352
B(  6-C ,  7-C ) :   0.9494 B(  6-C , 17-H ) :   0.9187 B(  6-C , 18-H ) :   0.9282
B(  7-C ,  8-O ) :   0.9274 B(  7-C , 19-H ) :   0.9372 B(  7-C , 20-H ) :   0.9231

MP2 TOTAL ENERGY:     -460.614558483 Eh
FINAL SINGLE POINT ENERGY      -460.614558483283

DIPOLE MOMENT
-------------
                                X             Y             Z
Electronic contribution:      0.67461      -4.47323      -0.05481
Nuclear contribution   :     -0.27478       4.43041      -0.63943
                        -----------------------------------------
Total Dipole Moment    :      0.39983      -0.04282      -0.69424
                        -----------------------------------------
Magnitude (a.u.)       :      0.80229
Magnitude (Debye)      :      2.03926

                             ****ORCA TERMINATED NORMALLY****
TOTAL RUN TIME: 0 days 0 hours 14 minutes 18 seconds 630 msec
