                         Program Version 3.0.3 - RELEASE   -
|  1> ! RI-MP2 RIJK def2-TZVP def2-TZVP/C def2-TZVP/JK TIGHTSCF
|  2> % maxcore 2000
|  3> % mp2 density relaxed end
|  4> *xyz 0 1
|  5>  C        0.1082390273     1.5375715159    -0.2266541043
|  6>  C        0.0059214007     0.0375674908    -0.0510013518
|  7>  C        1.1550457881    -0.8033592360    -0.4715566238
|  8>  N        0.8496475974    -0.6229355520     0.9642710036
|  9>  C       -1.4006892135    -0.5764672853    -0.1085633669
| 10>  O       -1.3362171932    -1.9643555325     0.1792032320
| 11>  C       -2.3891173300     0.1333660581     0.8286479160
| 12>  C       -3.7636155731    -0.5228854929     0.8268271817
| 13>  O       -4.6091153082     0.2440943823     1.6750384808
| 14>  H        1.1551704301     1.8533936244    -0.2769632471
| 15>  H       -0.3789050317     1.8571908910    -1.1549520464
| 16>  H       -0.3681321533     2.0754549036     0.5989116777
| 17>  H        0.9829774438    -1.8083235263    -0.8416013125
| 18>  H        2.0281828489    -0.3003633351    -0.8783584618
| 19>  H        1.4905945358     0.0376512663     1.3944870965
| 20>  H       -1.7689032144    -0.4986598456    -1.1414349667
| 21>  H       -0.7162904288    -2.0345695625     0.9229249724
| 22>  H       -1.9926255347     0.1300917840     1.8518738660
| 23>  H       -2.5098839122     1.1814834725     0.5325995794
| 24>  H       -4.1574581541    -0.5531720809    -0.2033886851
| 25>  H       -3.6742807957    -1.5608909986     1.1716686563
| 26>  H       -5.4529041994    -0.2116673813     1.7430434740
| 27> *
| 28>
| 29>                          ****END OF INPUT****

CARTESIAN COORDINATES (ANGSTROEM)
---------------------------------
  C      0.108239    1.537572   -0.226654
  C      0.005921    0.037567   -0.051001
  C      1.155046   -0.803359   -0.471557
  N      0.849648   -0.622936    0.964271
  C     -1.400689   -0.576467   -0.108563
  O     -1.336217   -1.964356    0.179203
  C     -2.389117    0.133366    0.828648
  C     -3.763616   -0.522885    0.826827
  O     -4.609115    0.244094    1.675038
  H      1.155170    1.853394   -0.276963
  H     -0.378905    1.857191   -1.154952
  H     -0.368132    2.075455    0.598912
  H      0.982977   -1.808324   -0.841601
  H      2.028183   -0.300363   -0.878358
  H      1.490595    0.037651    1.394487
  H     -1.768903   -0.498660   -1.141435
  H     -0.716290   -2.034570    0.922925
  H     -1.992626    0.130092    1.851874
  H     -2.509884    1.181483    0.532600
  H     -4.157458   -0.553172   -0.203389
  H     -3.674281   -1.560891    1.171669
  H     -5.452904   -0.211667    1.743043

 Total Charge           Charge          ....    0
 Multiplicity           Mult            ....    1
 Number of Electrons    NEL             ....   72
 Basis Dimension        Dim             ....  357

ORBITAL ENERGIES
----------------

  NO   OCC          E(Eh)            E(eV)
   0   2.0000     -20.548600      -559.1558
   1   2.0000     -20.541588      -558.9650
   2   2.0000     -15.564434      -423.5298
   3   2.0000     -11.279759      -306.9378
   4   2.0000     -11.271416      -306.7108
   5   2.0000     -11.265820      -306.5586
   6   2.0000     -11.255730      -306.2840
   7   2.0000     -11.232732      -305.6582
   8   2.0000     -11.214487      -305.1617
   9   2.0000      -1.358433       -36.9649
  10   2.0000      -1.351213       -36.7684
  11   2.0000      -1.263994       -34.3950
  12   2.0000      -1.049662       -28.5628
  13   2.0000      -0.995950       -27.1012
  14   2.0000      -0.916650       -24.9433
  15   2.0000      -0.887362       -24.1464
  16   2.0000      -0.813150       -22.1269
  17   2.0000      -0.776977       -21.1426
  18   2.0000      -0.691904       -18.8277
  19   2.0000      -0.688365       -18.7314
  20   2.0000      -0.669714       -18.2238
  21   2.0000      -0.651198       -17.7200
  22   2.0000      -0.609416       -16.5830
  23   2.0000      -0.596513       -16.2319
  24   2.0000      -0.576589       -15.6898
  25   2.0000      -0.566988       -15.4285
  26   2.0000      -0.565057       -15.3760
  27   2.0000      -0.541608       -14.7379
  28   2.0000      -0.508628       -13.8405
  29   2.0000      -0.497407       -13.5351
  30   2.0000      -0.479500       -13.0479
  31   2.0000      -0.474631       -12.9154
  32   2.0000      -0.452091       -12.3020
  33   2.0000      -0.444207       -12.0875
  34   2.0000      -0.433541       -11.7973
  35   2.0000      -0.388606       -10.5745
  36   0.0000       0.129563         3.5256
  37   0.0000       0.144738         3.9385
  38   0.0000       0.158350         4.3089
  39   0.0000       0.172671         4.6986
  40   0.0000       0.178353         4.8532

MULLIKEN ATOMIC CHARGES
-----------------------
   0 C :   -0.423385
   1 C :    0.113164
   2 C :   -0.204003
   3 N :   -0.432066
   4 C :    0.080164
   5 O :   -0.492052
   6 C :   -0.197010
   7 C :   -0.064143
   8 O :   -0.469297
   9 H :    0.130892
  10 H :    0.141311
  11 H :    0.155136
  12 H :    0.141133
  13 H :    0.130647
  14 H :    0.218459
  15 H :    0.095533
  16 H :    0.335608
  17 H :    0.114140
  18 H :    0.113868
  19 H :    0.081286
  20 H :    0.115464
  21 H :    0.315152
Sum of atomic charges:   -0.0000000

LOEWDIN ATOMIC CHARGES
----------------------
   0 C :   -0.273531
   1 C :   -0.321798
   2 C :   -0.243203
   3 N :   -0.010159
   4 C :   -0.311631
   5 O :   -0.011417
   6 C :   -0.253702
   7 C :   -0.348531
   8 O :   -0.057251
   9 H :    0.128271
  10 H :    0.134169
  11 H :    0.130104
  12 H :    0.130983
  13 H :    0.122402
  14 H :    0.165373
  15 H :    0.147951
  16 H :    0.181516
  17 H :    0.143361
  18 H :    0.143304
  19 H :    0.114147
  20 H :    0.118750
  21 H :    0.170890

  Mayer bond orders larger than 0.1
B(  0-C ,  1-C ) :   0.9166 B(  0-C ,  9-H ) :   0.9243 B(  0-C , 10-H ) :   0.9312
B(  0-C , 11-H ) :   0.9366 B(  1-C ,  2-C ) :   0.9310 B(  1-C ,  3-N ) :   0.9001
B(  1-C ,  4-C ) :   0.9140 B(  2-C ,  3-N ) :   0.9028 B(  2-C , 12-H ) :   0.9085
B(  2-C , 13-H ) :   0.9258 B(  3-N , 14-H ) :   0.8742 B(  4-C ,  5-O ) :   0.9320
B(  4-C ,  6-C ) :   0.9119 B(  4-C , 15-H ) :   0.9285 B(  5-O , 16-H ) :   0.8057
B(  6-C ,  7-C ) :   0.9465 B(  6-C ,  8-O ) :  -0.1019 B(  6-C , 17-H ) :   0.9113
B(  6-C , 18-H ) :   0.9193 B(  7-C ,  8-O ) :   1.0220 B(  7-C , 19-H ) :   0.9288
B(  7-C , 20-H ) :   0.9344 B(  8-O , 21-H ) :   0.8506

MP2 TOTAL ENERGY:     -440.748707079 Eh
FINAL SINGLE POINT ENERGY      -440.748707078913

DIPOLE MOMENT
-------------
                                X             Y             Z
Electronic contribution:     -1.29888      -3.24083       1.39514
Nuclear contribution   :      1.74574       3.71006      -1.74691
                        -----------------------------------------
Total Dipole Moment    :      0.44687       0.46923      -0.35177
                        -----------------------------------------
Magnitude (a.u.)       :      0.73730
Magnitude (Debye)      :      1.87407

                             ****ORCA TERMINATED NORMALLY****
TOTAL RUN TIME: 0 days 0 hours 17 minutes 5 seconds 275 msec
