                         Program Version 3.0.3 - RELEASE   -
|  1> ! RI-MP2 RIJK def2-TZVP def2-TZVP/C def2-TZVP/JK TIGHTSCF
|  2> % maxcore 2000
|  3> % mp2 density relaxed end
|  4> *xyz 0 1
|  5>  C       -0.0260056913     1.5023683981     0.0647323259
|  6>  C       -0.0208406167     0.0087167729    -0.0027349355
|  7>  C        0.0037355860    -0.7723293896    -1.0893173436
|  8>  C       -0.0075894288    -2.2505876510    -0.7563802490
|  9>  C        0.0301161799    -2.2557124418     0.7676493329
| 10>  O        1.2004487625    -1.6595865891     1.3304181407
| 11>  C        0.0009301082    -0.8565169216     1.2233494802
| 12>  H        0.8682904023     1.8794606729     0.5763657320
| 13>  H       -0.0614848338     1.9486608620    -0.9326593451
| 14>  H       -0.8899589626     1.8722675897     0.6314399730
| 15>  H        0.0651070698    -0.4088127787    -2.1098360747
| 16>  H       -0.9113052460    -2.7501301661    -1.1298592570
| 17>  H        0.8503204398    -2.7838832581    -1.1840287088
| 18>  H       -0.3921917534    -3.0803491770     1.3357073330
| 19>  H       -0.4179317061    -0.5290661730     2.1712621061
| 20> *
| 21>
| 22>                          ****END OF INPUT****

CARTESIAN COORDINATES (ANGSTROEM)
---------------------------------
  C     -0.026006    1.502368    0.064732
  C     -0.020841    0.008717   -0.002735
  C      0.003736   -0.772329   -1.089317
  C     -0.007589   -2.250588   -0.756380
  C      0.030116   -2.255712    0.767649
  O      1.200449   -1.659587    1.330418
  C      0.000930   -0.856517    1.223349
  H      0.868290    1.879461    0.576366
  H     -0.061485    1.948661   -0.932659
  H     -0.889959    1.872268    0.631440
  H      0.065107   -0.408813   -2.109836
  H     -0.911305   -2.750130   -1.129859
  H      0.850320   -2.783883   -1.184029
  H     -0.392192   -3.080349    1.335707
  H     -0.417932   -0.529066    2.171262

 Total Charge           Charge          ....    0
 Multiplicity           Mult            ....    1
 Number of Electrons    NEL             ....   52
 Basis Dimension        Dim             ....  265

ORBITAL ENERGIES
----------------

  NO   OCC          E(Eh)            E(eV)
   0   2.0000     -20.560805      -559.4879
   1   2.0000     -11.282386      -307.0093
   2   2.0000     -11.281566      -306.9870
   3   2.0000     -11.235877      -305.7438
   4   2.0000     -11.233835      -305.6882
   5   2.0000     -11.227649      -305.5199
   6   2.0000     -11.227469      -305.5150
   7   2.0000      -1.404714       -38.2242
   8   2.0000      -1.114767       -30.3344
   9   2.0000      -1.013417       -27.5765
  10   2.0000      -0.917331       -24.9618
  11   2.0000      -0.907347       -24.6902
  12   2.0000      -0.796240       -21.6668
  13   2.0000      -0.738295       -20.0900
  14   2.0000      -0.695043       -18.9131
  15   2.0000      -0.612451       -16.6656
  16   2.0000      -0.600397       -16.3376
  17   2.0000      -0.578719       -15.7477
  18   2.0000      -0.576374       -15.6839
  19   2.0000      -0.557374       -15.1669
  20   2.0000      -0.532117       -14.4796
  21   2.0000      -0.510402       -13.8888
  22   2.0000      -0.503437       -13.6992
  23   2.0000      -0.445623       -12.1260
  24   2.0000      -0.418073       -11.3763
  25   2.0000      -0.341702        -9.2982
  26   0.0000       0.143130         3.8948
  27   0.0000       0.146041         3.9740
  28   0.0000       0.156763         4.2657
  29   0.0000       0.178448         4.8558
  30   0.0000       0.193527         5.2661

MULLIKEN ATOMIC CHARGES
-----------------------
   0 C :   -0.430141
   1 C :    0.045237
   2 C :   -0.236006
   3 C :   -0.099604
   4 C :   -0.028110
   5 O :   -0.323434
   6 C :    0.030817
   7 H :    0.147563
   8 H :    0.139331
   9 H :    0.138618
  10 H :    0.127541
  11 H :    0.113630
  12 H :    0.124821
  13 H :    0.123866
  14 H :    0.125870
Sum of atomic charges:    0.0000000

LOEWDIN ATOMIC CHARGES
----------------------
   0 C :   -0.272387
   1 C :   -0.179156
   2 C :   -0.122586
   3 C :   -0.223683
   4 C :   -0.249803
   5 O :    0.162390
   6 C :   -0.211365
   7 H :    0.134257
   8 H :    0.131223
   9 H :    0.131463
  10 H :    0.137333
  11 H :    0.144140
  12 H :    0.148620
  13 H :    0.132990
  14 H :    0.136563

  Mayer bond orders larger than 0.1
B(  0-C ,  1-C ) :   0.8824 B(  0-C ,  7-H ) :   0.9274 B(  0-C ,  8-H ) :   0.9549
B(  0-C ,  9-H ) :   0.9332 B(  1-C ,  2-C ) :   1.7341 B(  1-C ,  6-C ) :   0.9000
B(  2-C ,  3-C ) :   0.9417 B(  2-C , 10-H ) :   0.9175 B(  3-C ,  4-C ) :   0.9352
B(  3-C , 11-H ) :   0.9003 B(  3-C , 12-H ) :   0.8992 B(  4-C ,  5-O ) :   0.9371
B(  4-C ,  6-C ) :   0.9684 B(  4-C , 13-H ) :   0.9310 B(  5-O ,  6-C ) :   0.8990
B(  6-C , 14-H ) :   0.9249

MP2 TOTAL ENERGY:     -307.969323949 Eh
FINAL SINGLE POINT ENERGY      -307.969323948558

DIPOLE MOMENT
-------------
                                X             Y             Z
Electronic contribution:      1.55944      -2.95631       2.10468
Nuclear contribution   :     -2.23034       3.08751      -2.39161
                        -----------------------------------------
Total Dipole Moment    :     -0.67089       0.13120      -0.28693
                        -----------------------------------------
Magnitude (a.u.)       :      0.74138
Magnitude (Debye)      :      1.88444

                             ****ORCA TERMINATED NORMALLY****
TOTAL RUN TIME: 0 days 0 hours 8 minutes 18 seconds 619 msec
