                         Program Version 3.0.3 - RELEASE   -
|  1> ! RI-MP2 RIJK def2-TZVP def2-TZVP/C def2-TZVP/JK TIGHTSCF
|  2> % maxcore 2000
|  3> % mp2 density relaxed end
|  4> *xyz 0 1
|  5>  C        0.2138447590     1.5372876847     0.0324638261
|  6>  C       -0.0403080575     0.0546104614    -0.0563990425
|  7>  N        0.0450616173    -0.5412241508    -1.1706756279
|  8>  C       -0.2138218699    -1.9628674745    -1.3894109917
|  9>  C       -1.5079498187    -2.4815862662    -0.7827707530
| 10>  C       -1.5210733653    -3.7470833403     0.0376024901
| 11>  C       -1.6492078258    -2.4023543454     0.7161598089
| 12>  C       -0.4848443639    -1.8073783715     1.4578800969
| 13>  O       -0.3434080774    -0.3998588403     1.2009154449
| 14>  H        1.0507965439     1.7387655913     0.7088861555
| 15>  H        0.4345425790     1.9321147364    -0.9577875681
| 16>  H       -0.6627367720     2.0449701886     0.4479450912
| 17>  H       -0.2441852134    -2.1164219257    -2.4737802441
| 18>  H        0.6399346946    -2.5577632458    -1.0397902585
| 19>  H       -2.4008341609    -2.2626291982    -1.3602412775
| 20>  H       -2.3996178898    -4.3813932671     0.0017953276
| 21>  H       -0.5874250067    -4.2896806133     0.1509996609
| 22>  H       -2.6253397530    -2.1353500084     1.1093623691
| 23>  H       -0.6196664589    -1.8717688858     2.5410878929
| 24>  H        0.4520475794    -2.3186192990     1.2135969891
| 25> *
| 26>
| 27>                          ****END OF INPUT****

CARTESIAN COORDINATES (ANGSTROEM)
---------------------------------
  C      0.213845    1.537288    0.032464
  C     -0.040308    0.054610   -0.056399
  N      0.045062   -0.541224   -1.170676
  C     -0.213822   -1.962867   -1.389411
  C     -1.507950   -2.481586   -0.782771
  C     -1.521073   -3.747083    0.037602
  C     -1.649208   -2.402354    0.716160
  C     -0.484844   -1.807378    1.457880
  O     -0.343408   -0.399859    1.200915
  H      1.050797    1.738766    0.708886
  H      0.434543    1.932115   -0.957788
  H     -0.662737    2.044970    0.447945
  H     -0.244185   -2.116422   -2.473780
  H      0.639935   -2.557763   -1.039790
  H     -2.400834   -2.262629   -1.360241
  H     -2.399618   -4.381393    0.001795
  H     -0.587425   -4.289681    0.151000
  H     -2.625340   -2.135350    1.109362
  H     -0.619666   -1.871769    2.541088
  H      0.452048   -2.318619    1.213597

 Total Charge           Charge          ....    0
 Multiplicity           Mult            ....    1
 Number of Electrons    NEL             ....   68
 Basis Dimension        Dim             ....  345

ORBITAL ENERGIES
----------------

  NO   OCC          E(Eh)            E(eV)
   0   2.0000     -20.581956      -560.0635
   1   2.0000     -15.527682      -422.5297
   2   2.0000     -11.329435      -308.2896
   3   2.0000     -11.290681      -307.2350
   4   2.0000     -11.252091      -306.1850
   5   2.0000     -11.236543      -305.7619
   6   2.0000     -11.235680      -305.7384
   7   2.0000     -11.234292      -305.7006
   8   2.0000     -11.216899      -305.2273
   9   2.0000      -1.409326       -38.3497
  10   2.0000      -1.205652       -32.8075
  11   2.0000      -1.159924       -31.5631
  12   2.0000      -1.014599       -27.6086
  13   2.0000      -0.969193       -26.3731
  14   2.0000      -0.922723       -25.1086
  15   2.0000      -0.823937       -22.4205
  16   2.0000      -0.779534       -21.2122
  17   2.0000      -0.754597       -20.5336
  18   2.0000      -0.687423       -18.7057
  19   2.0000      -0.665201       -18.1010
  20   2.0000      -0.652563       -17.7571
  21   2.0000      -0.635329       -17.2882
  22   2.0000      -0.585777       -15.9398
  23   2.0000      -0.580802       -15.8044
  24   2.0000      -0.550499       -14.9798
  25   2.0000      -0.541016       -14.7218
  26   2.0000      -0.539069       -14.6688
  27   2.0000      -0.527785       -14.3618
  28   2.0000      -0.509837       -13.8734
  29   2.0000      -0.487258       -13.2590
  30   2.0000      -0.439970       -11.9722
  31   2.0000      -0.410256       -11.1636
  32   2.0000      -0.379590       -10.3292
  33   2.0000      -0.373270       -10.1572
  34   0.0000       0.143376         3.9015
  35   0.0000       0.148001         4.0273
  36   0.0000       0.157179         4.2771
  37   0.0000       0.174489         4.7481
  38   0.0000       0.181833         4.9479

MULLIKEN ATOMIC CHARGES
-----------------------
   0 C :   -0.372687
   1 C :    0.214937
   2 N :   -0.279527
   3 C :   -0.143869
   4 C :   -0.090615
   5 C :   -0.311374
   6 C :   -0.110976
   7 C :   -0.091171
   8 O :   -0.266505
   9 H :    0.134005
  10 H :    0.144845
  11 H :    0.135976
  12 H :    0.132970
  13 H :    0.120626
  14 H :    0.125761
  15 H :    0.136481
  16 H :    0.133719
  17 H :    0.126042
  18 H :    0.136909
  19 H :    0.124453
Sum of atomic charges:   -0.0000000

LOEWDIN ATOMIC CHARGES
----------------------
   0 C :   -0.269747
   1 C :   -0.396078
   2 N :    0.094197
   3 C :   -0.278608
   4 C :   -0.205658
   5 C :   -0.200757
   6 C :   -0.215156
   7 C :   -0.267239
   8 O :    0.233165
   9 H :    0.131546
  10 H :    0.132682
  11 H :    0.132273
  12 H :    0.138175
  13 H :    0.134608
  14 H :    0.149162
  15 H :    0.134431
  16 H :    0.134951
  17 H :    0.149076
  18 H :    0.136500
  19 H :    0.132477

  Mayer bond orders larger than 0.1
B(  0-C ,  1-C ) :   0.9078 B(  0-C ,  9-H ) :   0.9228 B(  0-C , 10-H ) :   0.9448
B(  0-C , 11-H ) :   0.9264 B(  1-C ,  2-N ) :   1.9004 B(  1-C ,  8-O ) :   1.0603
B(  2-N ,  3-C ) :   0.9122 B(  3-C ,  4-C ) :   0.9193 B(  3-C , 12-H ) :   0.9422
B(  3-C , 13-H ) :   0.9202 B(  4-C ,  5-C ) :   0.8868 B(  4-C ,  6-C ) :   0.8475
B(  4-C , 14-H ) :   0.9276 B(  5-C ,  6-C ) :   0.8828 B(  5-C , 15-H ) :   0.9289
B(  5-C , 16-H ) :   0.9177 B(  6-C ,  7-C ) :   0.9386 B(  6-C , 17-H ) :   0.9228
B(  7-C ,  8-O ) :   0.8668 B(  7-C , 18-H ) :   0.9348 B(  7-C , 19-H ) :   0.9377

MP2 TOTAL ENERGY:     -402.451795496 Eh
FINAL SINGLE POINT ENERGY      -402.451795495517

DIPOLE MOMENT
-------------
                                X             Y             Z
Electronic contribution:      0.14436       1.34132       0.37205
Nuclear contribution   :     -0.39252      -1.99363       0.05574
                        -----------------------------------------
Total Dipole Moment    :     -0.24816      -0.65231       0.42779
                        -----------------------------------------
Magnitude (a.u.)       :      0.81859
Magnitude (Debye)      :      2.08070

                             ****ORCA TERMINATED NORMALLY****
TOTAL RUN TIME: 0 days 0 hours 18 minutes 40 seconds 855 msec
