                         Program Version 3.0.3 - RELEASE   -
|  1> ! RI-MP2 RIJK def2-TZVP def2-TZVP/C def2-TZVP/JK TIGHTSCF
|  2> % maxcore 2000
|  3> % mp2 density relaxed end
|  4> *xyz 0 1
|  5>  N       -0.1049551145     1.2552555368     0.3726164432
|  6>  C       -0.0216397068     0.0312469670     0.0302841856
|  7>  N        1.1643792161    -0.6764943156    -0.1750731135
|  8>  C        1.3398963842    -1.9248263760    -0.7573248183
|  9>  O        2.4341064006    -2.4411679568    -0.7850752278
| 10>  C        0.1198667906    -2.5431987608    -1.4248315181
| 11>  C       -1.2061490448    -2.0587608287    -0.8914183415
| 12>  N       -1.3238211671    -2.0473410774     0.5674137215
| 13>  C       -1.2643667633    -0.7603613921    -0.1688608164
| 14>  H        0.8166870456     1.6885810349     0.4620693025
| 15>  H        2.0265923396    -0.2598364793     0.1525456314
| 16>  H        0.1970887502    -2.3087969993    -2.4945010633
| 17>  H        0.2188094971    -3.6277074786    -1.3290030593
| 18>  H       -2.0786626294    -2.3361328981    -1.4781112719
| 19>  H       -2.2822490337    -2.2231248492     0.8564938640
| 20>  H       -2.1566652343    -0.1483542069    -0.2267725582
| 21> *
| 22>
| 23>                          ****END OF INPUT****

CARTESIAN COORDINATES (ANGSTROEM)
---------------------------------
  N     -0.104955    1.255256    0.372616
  C     -0.021640    0.031247    0.030284
  N      1.164379   -0.676494   -0.175073
  C      1.339896   -1.924826   -0.757325
  O      2.434106   -2.441168   -0.785075
  C      0.119867   -2.543199   -1.424832
  C     -1.206149   -2.058761   -0.891418
  N     -1.323821   -2.047341    0.567414
  C     -1.264367   -0.760361   -0.168861
  H      0.816687    1.688581    0.462069
  H      2.026592   -0.259836    0.152546
  H      0.197089   -2.308797   -2.494501
  H      0.218809   -3.627707   -1.329003
  H     -2.078663   -2.336133   -1.478111
  H     -2.282249   -2.223125    0.856494
  H     -2.156665   -0.148354   -0.226773

 Total Charge           Charge          ....    0
 Multiplicity           Mult            ....    1
 Number of Electrons    NEL             ....   66
 Basis Dimension        Dim             ....  321

ORBITAL ENERGIES
----------------

  NO   OCC          E(Eh)            E(eV)
   0   2.0000     -20.538493      -558.8808
   1   2.0000     -15.612369      -424.8342
   2   2.0000     -15.587387      -424.1544
   3   2.0000     -15.548591      -423.0987
   4   2.0000     -11.373350      -309.4846
   5   2.0000     -11.340481      -308.5902
   6   2.0000     -11.295239      -307.3591
   7   2.0000     -11.288706      -307.1813
   8   2.0000     -11.260797      -306.4219
   9   2.0000      -1.406708       -38.2785
  10   2.0000      -1.315647       -35.8006
  11   2.0000      -1.270368       -34.5685
  12   2.0000      -1.182214       -32.1697
  13   2.0000      -1.048812       -28.5396
  14   2.0000      -0.957595       -26.0575
  15   2.0000      -0.874115       -23.7859
  16   2.0000      -0.848345       -23.0847
  17   2.0000      -0.772958       -21.0332
  18   2.0000      -0.735910       -20.0251
  19   2.0000      -0.710421       -19.3316
  20   2.0000      -0.681346       -18.5404
  21   2.0000      -0.644792       -17.5457
  22   2.0000      -0.626667       -17.0525
  23   2.0000      -0.594936       -16.1890
  24   2.0000      -0.581216       -15.8157
  25   2.0000      -0.561443       -15.2776
  26   2.0000      -0.527236       -14.3468
  27   2.0000      -0.498112       -13.5543
  28   2.0000      -0.481397       -13.0995
  29   2.0000      -0.461788       -12.5659
  30   2.0000      -0.434027       -11.8105
  31   2.0000      -0.420046       -11.4300
  32   2.0000      -0.384417       -10.4605
  33   0.0000       0.118040         3.2120
  34   0.0000       0.126760         3.4493
  35   0.0000       0.139290         3.7903
  36   0.0000       0.157409         4.2833
  37   0.0000       0.177379         4.8267

MULLIKEN ATOMIC CHARGES
-----------------------
   0 N :   -0.335004
   1 C :    0.053029
   2 N :   -0.261370
   3 C :    0.186603
   4 O :   -0.312973
   5 C :   -0.158326
   6 C :   -0.062850
   7 N :   -0.392845
   8 C :    0.040210
   9 H :    0.203393
  10 H :    0.240343
  11 H :    0.138814
  12 H :    0.142324
  13 H :    0.140565
  14 H :    0.227593
  15 H :    0.150494
Sum of atomic charges:   -0.0000000

LOEWDIN ATOMIC CHARGES
----------------------
   0 N :   -0.046025
   1 C :   -0.344634
   2 N :    0.170259
   3 C :   -0.412451
   4 O :    0.112532
   5 C :   -0.202598
   6 C :   -0.252625
   7 N :    0.024663
   8 C :   -0.203174
   9 H :    0.158971
  10 H :    0.200243
  11 H :    0.163388
  12 H :    0.161557
  13 H :    0.143220
  14 H :    0.173331
  15 H :    0.153344

  Mayer bond orders larger than 0.1
B(  0-N ,  1-C ) :   2.0625 B(  0-N ,  9-H ) :   0.8569 B(  1-C ,  2-N ) :   1.0813
B(  1-C ,  8-C ) :   0.9354 B(  2-N ,  3-C ) :   1.0790 B(  2-N , 10-H ) :   0.8523
B(  3-C ,  4-O ) :   2.0335 B(  3-C ,  5-C ) :   0.9463 B(  5-C ,  6-C ) :   0.9003
B(  5-C , 11-H ) :   0.9023 B(  5-C , 12-H ) :   0.9027 B(  6-C ,  7-N ) :   0.9332
B(  6-C ,  8-C ) :   0.8639 B(  6-C , 13-H ) :   0.9215 B(  7-N ,  8-C ) :   0.8710
B(  7-N , 14-H ) :   0.8662 B(  8-C , 15-H ) :   0.9343

MP2 TOTAL ENERGY:     -433.376492470 Eh
FINAL SINGLE POINT ENERGY      -433.376492470270

DIPOLE MOMENT
-------------
                                X             Y             Z
Electronic contribution:      3.11349       0.47063       0.96670
Nuclear contribution   :     -4.05362      -0.45997      -1.46635
                        -----------------------------------------
Total Dipole Moment    :     -0.94013       0.01066      -0.49964
                        -----------------------------------------
Magnitude (a.u.)       :      1.06471
Magnitude (Debye)      :      2.70627

                             ****ORCA TERMINATED NORMALLY****
TOTAL RUN TIME: 0 days 0 hours 15 minutes 8 seconds 824 msec
