                         Program Version 3.0.3 - RELEASE   -
|  1> ! RI-MP2 RIJK def2-TZVP def2-TZVP/C def2-TZVP/JK TIGHTSCF
|  2> % maxcore 2000
|  3> % mp2 density relaxed end
|  4> *xyz 0 1
|  5>  C        0.0929369652     1.4530118856    -0.1603183905
|  6>  O        1.2150823232     0.5621126603    -0.2225505195
|  7>  C       -0.0638445872     0.0015065955    -0.0341813976
|  8>  C       -0.5444069586    -0.8046377410     1.1744453584
|  9>  C       -1.5645239546    -1.4923860434     0.2152266452
| 10>  C       -0.7545426996    -0.9729897629    -1.0012063039
| 11>  C       -1.3101398619    -0.6134701893    -2.3889852435
| 12>  C       -0.2637841313    -1.6137109463    -2.9140784685
| 13>  O        0.1386376378    -1.9565688161    -1.5715530347
| 14>  H        0.0366953347     2.0754990899     0.7323133679
| 15>  H       -0.1542849949     1.9573099428    -1.0936915580
| 16>  H        0.2242594451    -1.4991378697     1.5227245292
| 17>  H       -0.9401594066    -0.2479755129     2.0264249009
| 18>  H       -1.6436486617    -2.5790209535     0.2712770665
| 19>  H       -2.5618709994    -1.0469792521     0.2664065027
| 20>  H       -2.3507245753    -0.9058494912    -2.5440259552
| 21>  H       -1.1806194729     0.4256325859    -2.6975040324
| 22>  H       -0.6513863454    -2.4829138832    -3.4576532348
| 23>  H        0.5614126733    -1.1723586785    -3.4853236022
| 24> *
| 25>
| 26>                          ****END OF INPUT****

CARTESIAN COORDINATES (ANGSTROEM)
---------------------------------
  C      0.092937    1.453012   -0.160318
  O      1.215082    0.562113   -0.222551
  C     -0.063845    0.001507   -0.034181
  C     -0.544407   -0.804638    1.174445
  C     -1.564524   -1.492386    0.215227
  C     -0.754543   -0.972990   -1.001206
  C     -1.310140   -0.613470   -2.388985
  C     -0.263784   -1.613711   -2.914078
  O      0.138638   -1.956569   -1.571553
  H      0.036695    2.075499    0.732313
  H     -0.154285    1.957310   -1.093692
  H      0.224259   -1.499138    1.522725
  H     -0.940159   -0.247976    2.026425
  H     -1.643649   -2.579021    0.271277
  H     -2.561871   -1.046979    0.266407
  H     -2.350725   -0.905849   -2.544026
  H     -1.180619    0.425633   -2.697504
  H     -0.651386   -2.482914   -3.457653
  H      0.561413   -1.172359   -3.485324

 Total Charge           Charge          ....    0
 Multiplicity           Mult            ....    1
 Number of Electrons    NEL             ....   68
 Basis Dimension        Dim             ....  339

ORBITAL ENERGIES
----------------

  NO   OCC          E(Eh)            E(eV)
   0   2.0000     -20.568800      -559.7055
   1   2.0000     -20.547192      -559.1175
   2   2.0000     -11.292419      -307.2823
   3   2.0000     -11.288457      -307.1745
   4   2.0000     -11.284399      -307.0641
   5   2.0000     -11.278947      -306.9157
   6   2.0000     -11.233907      -305.6901
   7   2.0000     -11.229930      -305.5819
   8   2.0000     -11.229224      -305.5627
   9   2.0000      -1.416479       -38.5444
  10   2.0000      -1.378177       -37.5021
  11   2.0000      -1.119057       -30.4511
  12   2.0000      -1.012071       -27.5398
  13   2.0000      -0.918773       -25.0011
  14   2.0000      -0.913460       -24.8565
  15   2.0000      -0.867100       -23.5950
  16   2.0000      -0.811171       -22.0731
  17   2.0000      -0.723861       -19.6972
  18   2.0000      -0.693780       -18.8787
  19   2.0000      -0.682408       -18.5693
  20   2.0000      -0.653523       -17.7833
  21   2.0000      -0.644663       -17.5422
  22   2.0000      -0.594992       -16.1906
  23   2.0000      -0.580527       -15.7969
  24   2.0000      -0.563359       -15.3298
  25   2.0000      -0.544785       -14.8244
  26   2.0000      -0.521806       -14.1991
  27   2.0000      -0.514596       -14.0029
  28   2.0000      -0.484771       -13.1913
  29   2.0000      -0.469768       -12.7830
  30   2.0000      -0.457070       -12.4375
  31   2.0000      -0.436759       -11.8848
  32   2.0000      -0.419170       -11.4062
  33   2.0000      -0.395426       -10.7601
  34   0.0000       0.141390         3.8474
  35   0.0000       0.150387         4.0922
  36   0.0000       0.162915         4.4331
  37   0.0000       0.172356         4.6900
  38   0.0000       0.178129         4.8471

MULLIKEN ATOMIC CHARGES
-----------------------
   0 C :   -0.098515
   1 O :   -0.319024
   2 C :    0.068564
   3 C :   -0.214820
   4 C :   -0.245958
   5 C :    0.298875
   6 C :   -0.301775
   7 C :   -0.022688
   8 O :   -0.338718
   9 H :    0.116571
  10 H :    0.112533
  11 H :    0.131207
  12 H :    0.121362
  13 H :    0.124091
  14 H :    0.121808
  15 H :    0.126284
  16 H :    0.123737
  17 H :    0.098014
  18 H :    0.098453
Sum of atomic charges:   -0.0000000

LOEWDIN ATOMIC CHARGES
----------------------
   0 C :   -0.233970
   1 O :    0.184441
   2 C :   -0.290365
   3 C :   -0.192657
   4 C :   -0.189910
   5 C :   -0.257549
   6 C :   -0.208183
   7 C :   -0.267018
   8 O :    0.165532
   9 H :    0.121319
  10 H :    0.118624
  11 H :    0.146230
  12 H :    0.129120
  13 H :    0.135371
  14 H :    0.137681
  15 H :    0.135344
  16 H :    0.132390
  17 H :    0.115325
  18 H :    0.118276

  Mayer bond orders larger than 0.1
B(  0-C ,  1-O ) :   0.9078 B(  0-C ,  2-C ) :   0.9684 B(  0-C ,  9-H ) :   0.9169
B(  0-C , 10-H ) :   0.9055 B(  1-O ,  2-C ) :   0.8875 B(  2-C ,  3-C ) :   0.9237
B(  2-C ,  5-C ) :   0.8863 B(  3-C ,  4-C ) :   0.9676 B(  3-C , 11-H ) :   0.9044
B(  3-C , 12-H ) :   0.9236 B(  4-C ,  5-C ) :   0.8970 B(  4-C , 13-H ) :   0.9166
B(  4-C , 14-H ) :   0.9169 B(  5-C ,  6-C ) :   0.8686 B(  5-C ,  8-O ) :   0.9407
B(  6-C ,  7-C ) :   1.0061 B(  6-C , 15-H ) :   0.9198 B(  6-C , 16-H ) :   0.9218
B(  7-C ,  8-O ) :   0.9559 B(  7-C , 17-H ) :   0.9160 B(  7-C , 18-H ) :   0.9105

MP2 TOTAL ENERGY:     -422.258544584 Eh
FINAL SINGLE POINT ENERGY      -422.258544583572

DIPOLE MOMENT
-------------
                                X             Y             Z
Electronic contribution:      3.96344      -0.06644       0.42454
Nuclear contribution   :     -5.11937       0.54063      -0.60722
                        -----------------------------------------
Total Dipole Moment    :     -1.15593       0.47419      -0.18268
                        -----------------------------------------
Magnitude (a.u.)       :      1.26270
Magnitude (Debye)      :      3.20952

                             ****ORCA TERMINATED NORMALLY****
TOTAL RUN TIME: 0 days 0 hours 16 minutes 36 seconds 171 msec
