                         Program Version 3.0.3 - RELEASE   -
|  1> ! RI-MP2 RIJK def2-TZVP def2-TZVP/C def2-TZVP/JK TIGHTSCF
|  2> % maxcore 2000
|  3> % mp2 density relaxed end
|  4> *xyz 0 1
|  5>  O        0.0140754182     1.4364437347     0.5396123676
|  6>  C        0.0165480798     0.1270412671    -0.0328569036
|  7>  C        0.9796012273    -0.7577641444     0.7329146171
|  8>  C        0.5468943920    -1.4998100878     1.7589584825
|  9>  C       -0.8893831530    -1.4629642503     2.1632727597
| 10>  O       -1.2487165308    -1.5683411959     3.3160073415
| 11>  N       -1.7672535017    -1.3033306056     1.0901791172
| 12>  C       -2.4935633655    -0.0786127725     0.7932091721
| 13>  C       -1.3608147693    -0.5370882170    -0.0751630099
| 14>  H        0.2062447476     1.3506325024     1.4796724417
| 15>  H        0.3595866632     0.2635488004    -1.0629300117
| 16>  H        2.0375868225    -0.6770585742     0.4988899604
| 17>  H        1.2194512372    -2.0395975176     2.4168575231
| 18>  H       -3.5170161296    -0.2044241229     0.4527949398
| 19>  H       -2.3153730521     0.7799865316     1.4334592025
| 20>  H       -1.6022029359    -1.0164030780    -1.0221437300
| 21> *
| 22>
| 23>                          ****END OF INPUT****

CARTESIAN COORDINATES (ANGSTROEM)
---------------------------------
  O      0.014075    1.436444    0.539612
  C      0.016548    0.127041   -0.032857
  C      0.979601   -0.757764    0.732915
  C      0.546894   -1.499810    1.758958
  C     -0.889383   -1.462964    2.163273
  O     -1.248717   -1.568341    3.316007
  N     -1.767254   -1.303331    1.090179
  C     -2.493563   -0.078613    0.793209
  C     -1.360815   -0.537088   -0.075163
  H      0.206245    1.350633    1.479672
  H      0.359587    0.263549   -1.062930
  H      2.037587   -0.677059    0.498890
  H      1.219451   -2.039598    2.416858
  H     -3.517016   -0.204424    0.452795
  H     -2.315373    0.779987    1.433459
  H     -1.602203   -1.016403   -1.022144

 Total Charge           Charge          ....    0
 Multiplicity           Mult            ....    1
 Number of Electrons    NEL             ....   66
 Basis Dimension        Dim             ....  321

ORBITAL ENERGIES
----------------

  NO   OCC          E(Eh)            E(eV)
   0   2.0000     -20.579944      -560.0088
   1   2.0000     -20.538888      -558.8916
   2   2.0000     -15.587972      -424.1703
   3   2.0000     -11.362631      -309.1929
   4   2.0000     -11.318144      -307.9823
   5   2.0000     -11.286493      -307.1211
   6   2.0000     -11.285780      -307.1017
   7   2.0000     -11.274680      -306.7996
   8   2.0000     -11.263415      -306.4931
   9   2.0000      -1.400458       -38.1084
  10   2.0000      -1.386008       -37.7152
  11   2.0000      -1.302082       -35.4314
  12   2.0000      -1.109719       -30.1970
  13   2.0000      -1.022161       -27.8144
  14   2.0000      -0.940134       -25.5823
  15   2.0000      -0.868263       -23.6266
  16   2.0000      -0.826305       -22.4849
  17   2.0000      -0.747703       -20.3460
  18   2.0000      -0.717199       -19.5160
  19   2.0000      -0.704421       -19.1683
  20   2.0000      -0.666893       -18.1471
  21   2.0000      -0.649527       -17.6745
  22   2.0000      -0.629382       -17.1264
  23   2.0000      -0.612340       -16.6626
  24   2.0000      -0.577805       -15.7229
  25   2.0000      -0.552232       -15.0270
  26   2.0000      -0.529819       -14.4171
  27   2.0000      -0.526519       -14.3273
  28   2.0000      -0.496856       -13.5202
  29   2.0000      -0.474122       -12.9015
  30   2.0000      -0.430490       -11.7142
  31   2.0000      -0.403752       -10.9866
  32   2.0000      -0.394717       -10.7408
  33   0.0000       0.082871         2.2550
  34   0.0000       0.130127         3.5409
  35   0.0000       0.144573         3.9340
  36   0.0000       0.161616         4.3978
  37   0.0000       0.179564         4.8862

MULLIKEN ATOMIC CHARGES
-----------------------
   0 O :   -0.453854
   1 C :    0.087243
   2 C :   -0.195256
   3 C :   -0.147465
   4 C :    0.190896
   5 O :   -0.297344
   6 N :   -0.149688
   7 C :   -0.159532
   8 C :   -0.033358
   9 H :    0.328772
  10 H :    0.114532
  11 H :    0.147537
  12 H :    0.154039
  13 H :    0.137212
  14 H :    0.135214
  15 H :    0.141053
Sum of atomic charges:   -0.0000000

LOEWDIN ATOMIC CHARGES
----------------------
   0 O :   -0.005787
   1 C :   -0.310082
   2 C :   -0.122048
   3 C :   -0.111846
   4 C :   -0.420489
   5 O :    0.131221
   6 N :    0.197370
   7 C :   -0.196743
   8 C :   -0.208434
   9 H :    0.177537
  10 H :    0.153197
  11 H :    0.148141
  12 H :    0.155669
  13 H :    0.131433
  14 H :    0.133693
  15 H :    0.147168

  Mayer bond orders larger than 0.1
B(  0-O ,  1-C ) :   0.9755 B(  0-O ,  9-H ) :   0.8311 B(  1-C ,  2-C ) :   0.9629
B(  1-C ,  8-C ) :   0.8824 B(  1-C , 10-H ) :   0.9456 B(  2-C ,  3-C ) :   1.7045
B(  2-C , 11-H ) :   0.9285 B(  3-C ,  4-C ) :   0.9649 B(  3-C , 12-H ) :   0.9150
B(  4-C ,  5-O ) :   1.9923 B(  4-C ,  6-N ) :   1.0296 B(  6-N ,  7-C ) :   0.8739
B(  6-N ,  8-C ) :   0.8667 B(  7-C ,  8-C ) :   0.9459 B(  7-C , 13-H ) :   0.9211
B(  7-C , 14-H ) :   0.9044 B(  8-C , 15-H ) :   0.9063

MP2 TOTAL ENERGY:     -437.157147024 Eh
FINAL SINGLE POINT ENERGY      -437.157147023795

DIPOLE MOMENT
-------------
                                X             Y             Z
Electronic contribution:     -0.53675      -2.10739       2.67383
Nuclear contribution   :      1.15257       2.36729      -3.66811
                        -----------------------------------------
Total Dipole Moment    :      0.61582       0.25989      -0.99428
                        -----------------------------------------
Magnitude (a.u.)       :      1.19807
Magnitude (Debye)      :      3.04525

                             ****ORCA TERMINATED NORMALLY****
TOTAL RUN TIME: 0 days 0 hours 17 minutes 6 seconds 100 msec
