                         Program Version 3.0.3 - RELEASE   -
|  1> ! RI-MP2 RIJK def2-TZVP def2-TZVP/C def2-TZVP/JK TIGHTSCF
|  2> % maxcore 2000
|  3> % mp2 density relaxed end
|  4> *xyz 0 1
|  5>  C       -0.1622355714     1.7253834763     0.1541552691
|  6>  C       -0.0760003584     0.2330276209    -0.1109465968
|  7>  O       -1.3302576202    -0.3529937197     0.2100638822
|  8>  C       -1.3840744165    -1.7484484551    -0.0046949509
|  9>  C       -2.6120044889    -2.3009422515     0.7304103245
| 10>  C       -2.5250940375    -2.1055425752     2.2478808567
| 11>  O       -3.6457314921    -2.6507470534     2.9240831200
| 12>  C       -1.5134418757    -2.0584957241    -1.4947012795
| 13>  O       -1.2049386508    -3.1031787323    -2.0038009916
| 14>  H        0.7932269225     2.2072489907    -0.0725570693
| 15>  H       -0.9379373297     2.1822808369    -0.4666758854
| 16>  H       -0.4066977297     1.9144046505     1.2032438013
| 17>  H        0.1799711598     0.0424407933    -1.1658256015
| 18>  H        0.7164259268    -0.2284367219     0.5000300165
| 19>  H       -0.4752572912    -2.2453622872     0.3716116213
| 20>  H       -3.5086157019    -1.7959961038     0.3462515169
| 21>  H       -2.7102781797    -3.3669414856     0.5031589645
| 22>  H       -1.6524869257    -2.6414480073     2.6382169482
| 23>  H       -2.3874672724    -1.0408150210     2.4766655634
| 24>  H       -4.4128518129    -2.1114044223     2.7076842207
| 25>  H       -1.9667427245    -1.2212405782    -2.0764236802
| 26> *
| 27>
| 28>                          ****END OF INPUT****

CARTESIAN COORDINATES (ANGSTROEM)
---------------------------------
  C     -0.162236    1.725383    0.154155
  C     -0.076000    0.233028   -0.110947
  O     -1.330258   -0.352994    0.210064
  C     -1.384074   -1.748448   -0.004695
  C     -2.612004   -2.300942    0.730410
  C     -2.525094   -2.105543    2.247881
  O     -3.645731   -2.650747    2.924083
  C     -1.513442   -2.058496   -1.494701
  O     -1.204939   -3.103179   -2.003801
  H      0.793227    2.207249   -0.072557
  H     -0.937937    2.182281   -0.466676
  H     -0.406698    1.914405    1.203244
  H      0.179971    0.042441   -1.165826
  H      0.716426   -0.228437    0.500030
  H     -0.475257   -2.245362    0.371612
  H     -3.508616   -1.795996    0.346252
  H     -2.710278   -3.366941    0.503159
  H     -1.652487   -2.641448    2.638217
  H     -2.387467   -1.040815    2.476666
  H     -4.412852   -2.111404    2.707684
  H     -1.966743   -1.221241   -2.076424

 Total Charge           Charge          ....    0
 Multiplicity           Mult            ....    1
 Number of Electrons    NEL             ....   72
 Basis Dimension        Dim             ....  351

ORBITAL ENERGIES
----------------

  NO   OCC          E(Eh)            E(eV)
   0   2.0000     -20.576470      -559.9142
   1   2.0000     -20.566884      -559.6534
   2   2.0000     -20.559192      -559.4441
   3   2.0000     -11.336920      -308.4933
   4   2.0000     -11.303335      -307.5794
   5   2.0000     -11.293250      -307.3049
   6   2.0000     -11.280008      -306.9446
   7   2.0000     -11.239024      -305.8294
   8   2.0000     -11.228488      -305.5427
   9   2.0000      -1.410529       -38.3824
  10   2.0000      -1.394951       -37.9586
  11   2.0000      -1.363429       -37.1008
  12   2.0000      -1.083553       -29.4850
  13   2.0000      -1.018405       -27.7122
  14   2.0000      -0.951134       -25.8817
  15   2.0000      -0.858706       -23.3666
  16   2.0000      -0.844554       -22.9815
  17   2.0000      -0.801775       -21.8174
  18   2.0000      -0.714159       -19.4333
  19   2.0000      -0.695280       -18.9195
  20   2.0000      -0.680305       -18.5120
  21   2.0000      -0.649808       -17.6822
  22   2.0000      -0.643358       -17.5067
  23   2.0000      -0.637021       -17.3342
  24   2.0000      -0.596795       -16.2396
  25   2.0000      -0.582801       -15.8588
  26   2.0000      -0.562241       -15.2993
  27   2.0000      -0.547270       -14.8920
  28   2.0000      -0.540191       -14.6993
  29   2.0000      -0.530370       -14.4321
  30   2.0000      -0.508365       -13.8333
  31   2.0000      -0.490876       -13.3574
  32   2.0000      -0.486335       -13.2339
  33   2.0000      -0.466160       -12.6849
  34   2.0000      -0.453153       -12.3309
  35   2.0000      -0.408149       -11.1063
  36   0.0000       0.119884         3.2622
  37   0.0000       0.128971         3.5095
  38   0.0000       0.138674         3.7735
  39   0.0000       0.150679         4.1002
  40   0.0000       0.164183         4.4677

MULLIKEN ATOMIC CHARGES
-----------------------
   0 C :   -0.368511
   1 C :   -0.072608
   2 O :   -0.302635
   3 C :    0.100087
   4 C :   -0.220624
   5 C :   -0.036949
   6 O :   -0.468942
   7 C :    0.051088
   8 O :   -0.252114
   9 H :    0.128481
  10 H :    0.131712
  11 H :    0.133222
  12 H :    0.106519
  13 H :    0.103450
  14 H :    0.085410
  15 H :    0.103749
  16 H :    0.141304
  17 H :    0.107640
  18 H :    0.123560
  19 H :    0.315029
  20 H :    0.091131
Sum of atomic charges:    0.0000000

LOEWDIN ATOMIC CHARGES
----------------------
   0 C :   -0.314592
   1 C :   -0.345110
   2 O :    0.181847
   3 C :   -0.333442
   4 C :   -0.250663
   5 C :   -0.345929
   6 O :   -0.048632
   7 C :   -0.279837
   8 O :    0.142587
   9 H :    0.126792
  10 H :    0.124937
  11 H :    0.125241
  12 H :    0.120501
  13 H :    0.119921
  14 H :    0.147666
  15 H :    0.140903
  16 H :    0.150828
  17 H :    0.129263
  18 H :    0.119339
  19 H :    0.173642
  20 H :    0.114735

  Mayer bond orders larger than 0.1
B(  0-C ,  1-C ) :   0.9559 B(  0-C ,  9-H ) :   0.9320 B(  0-C , 10-H ) :   0.9357
B(  0-C , 11-H ) :   0.9356 B(  1-C ,  2-O ) :   0.8968 B(  1-C , 12-H ) :   0.9228
B(  1-C , 13-H ) :   0.9211 B(  2-O ,  3-C ) :   0.9364 B(  3-C ,  4-C ) :   0.9065
B(  3-C ,  7-C ) :   0.8370 B(  3-C , 14-H ) :   0.9003 B(  4-C ,  5-C ) :   0.9177
B(  4-C , 15-H ) :   0.9143 B(  4-C , 16-H ) :   0.9192 B(  5-C ,  6-O ) :   0.9328
B(  5-C , 17-H ) :   0.9213 B(  5-C , 18-H ) :   0.9434 B(  6-O , 19-H ) :   0.8478
B(  7-C ,  8-O ) :   2.0125 B(  7-C , 20-H ) :   0.9343

MP2 TOTAL ENERGY:     -460.622356184 Eh
FINAL SINGLE POINT ENERGY      -460.622356183589

DIPOLE MOMENT
-------------
                                X             Y             Z
Electronic contribution:     -2.42278      -6.44628      -2.78958
Nuclear contribution   :      2.57719       7.61489       2.84089
                        -----------------------------------------
Total Dipole Moment    :      0.15441       1.16861       0.05131
                        -----------------------------------------
Magnitude (a.u.)       :      1.17989
Magnitude (Debye)      :      2.99903

                             ****ORCA TERMINATED NORMALLY****
TOTAL RUN TIME: 0 days 0 hours 15 minutes 55 seconds 683 msec
