                         Program Version 3.0.3 - RELEASE   -
|  1> ! RI-MP2 RIJK def2-TZVP def2-TZVP/C def2-TZVP/JK TIGHTSCF
|  2> % maxcore 2000
|  3> % mp2 density relaxed end
|  4> *xyz 0 1
|  5>  O        0.0102552860     1.4288493626     0.1679999993
|  6>  C       -0.0865053474     0.0395430708     0.0800422109
|  7>  C       -0.4355623872    -0.8127781686     1.2596353027
|  8>  C       -1.4576177927    -0.0661539000     2.1251657304
|  9>  C       -2.4278124856    -0.0584044866     0.9077907358
| 10>  O       -2.8619231905     1.2322287154     0.4397042532
| 11>  C       -4.1735221236     1.5384222881     0.4842108977
| 12>  O       -4.6043057960     2.5925748349     0.1283756947
| 13>  C       -1.3823929945    -0.7157821839     0.0264018901
| 14>  H       -0.8328553397     1.8136015101    -0.0959231765
| 15>  H        0.6803450077    -0.3895047765    -0.5626307183
| 16>  H        0.1636022428    -1.6552090858     1.5797735248
| 17>  H       -1.8484165323    -0.6382568331     2.9678317271
| 18>  H       -1.1340561350     0.9207444752     2.4619595903
| 19>  H       -3.3046013447    -0.6919012682     1.0724167345
| 20>  H       -4.7903300148     0.7073234706     0.8784007149
| 21>  H       -1.6012414125    -1.4350634552    -0.7538688715
| 22> *
| 23>
| 24>                          ****END OF INPUT****

CARTESIAN COORDINATES (ANGSTROEM)
---------------------------------
  O      0.010255    1.428849    0.168000
  C     -0.086505    0.039543    0.080042
  C     -0.435562   -0.812778    1.259635
  C     -1.457618   -0.066154    2.125166
  C     -2.427812   -0.058404    0.907791
  O     -2.861923    1.232229    0.439704
  C     -4.173522    1.538422    0.484211
  O     -4.604306    2.592575    0.128376
  C     -1.382393   -0.715782    0.026402
  H     -0.832855    1.813602   -0.095923
  H      0.680345   -0.389505   -0.562631
  H      0.163602   -1.655209    1.579774
  H     -1.848417   -0.638257    2.967832
  H     -1.134056    0.920744    2.461960
  H     -3.304601   -0.691901    1.072417
  H     -4.790330    0.707323    0.878401
  H     -1.601241   -1.435063   -0.753869

 Total Charge           Charge          ....    0
 Multiplicity           Mult            ....    1
 Number of Electrons    NEL             ....   68
 Basis Dimension        Dim             ....  327

ORBITAL ENERGIES
----------------

  NO   OCC          E(Eh)            E(eV)
   0   2.0000     -20.617414      -561.0283
   1   2.0000     -20.559221      -559.4448
   2   2.0000     -20.557868      -559.4080
   3   2.0000     -11.391360      -309.9747
   4   2.0000     -11.323257      -308.1215
   5   2.0000     -11.298618      -307.4510
   6   2.0000     -11.253838      -306.2325
   7   2.0000     -11.253253      -306.2166
   8   2.0000     -11.247315      -306.0550
   9   2.0000      -1.470559       -40.0159
  10   2.0000      -1.384219       -37.6665
  11   2.0000      -1.371163       -37.3112
  12   2.0000      -1.200147       -32.6577
  13   2.0000      -1.008295       -27.4371
  14   2.0000      -0.933973       -25.4147
  15   2.0000      -0.861599       -23.4453
  16   2.0000      -0.822401       -22.3787
  17   2.0000      -0.777918       -21.1682
  18   2.0000      -0.739975       -20.1357
  19   2.0000      -0.720456       -19.6046
  20   2.0000      -0.681853       -18.5542
  21   2.0000      -0.668421       -18.1886
  22   2.0000      -0.648286       -17.6408
  23   2.0000      -0.618945       -16.8423
  24   2.0000      -0.596767       -16.2389
  25   2.0000      -0.573322       -15.6009
  26   2.0000      -0.559610       -15.2278
  27   2.0000      -0.533953       -14.5296
  28   2.0000      -0.508578       -13.8391
  29   2.0000      -0.492655       -13.4058
  30   2.0000      -0.465388       -12.6639
  31   2.0000      -0.453891       -12.3510
  32   2.0000      -0.419186       -11.4066
  33   2.0000      -0.400767       -10.9054
  34   0.0000       0.128697         3.5020
  35   0.0000       0.142513         3.8780
  36   0.0000       0.154322         4.1993
  37   0.0000       0.161687         4.3997
  38   0.0000       0.164878         4.4866

MULLIKEN ATOMIC CHARGES
-----------------------
   0 O :   -0.480527
   1 C :    0.064477
   2 C :   -0.137151
   3 C :   -0.202616
   4 C :    0.038073
   5 O :   -0.240790
   6 C :    0.184305
   7 O :   -0.265701
   8 C :   -0.168895
   9 H :    0.347319
  10 H :    0.122404
  11 H :    0.143943
  12 H :    0.132288
  13 H :    0.134664
  14 H :    0.112671
  15 H :    0.075773
  16 H :    0.139764
Sum of atomic charges:   -0.0000000

LOEWDIN ATOMIC CHARGES
----------------------
   0 O :    0.005484
   1 C :   -0.302007
   2 C :   -0.151616
   3 C :   -0.191876
   4 C :   -0.253770
   5 O :    0.245880
   6 C :   -0.448388
   7 O :    0.124001
   8 C :   -0.155656
   9 H :    0.181412
  10 H :    0.148747
  11 H :    0.136835
  12 H :    0.136860
  13 H :    0.141857
  14 H :    0.141310
  15 H :    0.103185
  16 H :    0.137744

  Mayer bond orders larger than 0.1
B(  0-O ,  1-C ) :   0.9837 B(  0-O ,  9-H ) :   0.8149 B(  1-C ,  2-C ) :   0.8604
B(  1-C ,  8-C ) :   0.9166 B(  1-C , 10-H ) :   0.9647 B(  2-C ,  3-C ) :   0.9590
B(  2-C ,  8-C ) :   0.7911 B(  2-C , 11-H ) :   0.9161 B(  3-C ,  4-C ) :   0.9878
B(  3-C , 12-H ) :   0.9266 B(  3-C , 13-H ) :   0.8929 B(  4-C ,  5-O ) :   0.8202
B(  4-C ,  8-C ) :   0.9380 B(  4-C , 14-H ) :   0.9140 B(  5-O ,  6-C ) :   1.0695
B(  6-C ,  7-O ) :   2.0350 B(  6-C , 15-H ) :   0.9191 B(  8-C , 16-H ) :   0.9216

MP2 TOTAL ENERGY:     -458.210637278 Eh
FINAL SINGLE POINT ENERGY      -458.210637278118

DIPOLE MOMENT
-------------
                                X             Y             Z
Electronic contribution:     -2.90764       4.27289      -2.08162
Nuclear contribution   :      2.83817      -6.02429       2.49390
                        -----------------------------------------
Total Dipole Moment    :     -0.06947      -1.75140       0.41229
                        -----------------------------------------
Magnitude (a.u.)       :      1.80061
Magnitude (Debye)      :      4.57679

                             ****ORCA TERMINATED NORMALLY****
TOTAL RUN TIME: 0 days 0 hours 15 minutes 47 seconds 399 msec
