                         Program Version 3.0.3 - RELEASE   -
|  1> ! RI-MP2 RIJK def2-TZVP def2-TZVP/C def2-TZVP/JK TIGHTSCF
|  2> % maxcore 2000
|  3> % mp2 density relaxed end
|  4> *xyz 0 1
|  5>  O        0.6209525182     0.8603758830    -0.8360952566
|  6>  C        0.1693667596    -0.1940045359    -0.0335983534
|  7>  C        0.1923079105    -0.0792994050     1.5148987955
|  8>  C       -1.2095140815    -0.7475681675     1.5762249078
|  9>  C       -2.3824042538     0.2356973467     1.7725061087
| 10>  C       -2.3415473527     0.5943839018     0.2580331999
| 11>  C       -1.3415421517    -0.5602913082    -0.0072517156
| 12>  C       -1.8088916126    -1.6738646086    -0.8820750965
| 13>  O       -2.9020720579    -1.7517946582    -1.3887678248
| 14>  H        0.1639451640     1.6647033228    -0.5679068940
| 15>  H        0.7395748353    -1.0726523016    -0.3566476610
| 16>  H        1.0107395470    -0.6004518388     2.0154432203
| 17>  H        0.1798642925     0.9568451750     1.8704433159
| 18>  H       -1.2590369867    -1.7286107508     2.0485403227
| 19>  H       -3.3110695402    -0.2711699273     2.0460839409
| 20>  H       -2.2076937343     1.0472838771     2.4848981189
| 21>  H       -3.2818364974     0.4597929965    -0.2775412898
| 22>  H       -1.9557463700     1.5921106871     0.0259751457
| 23>  H       -1.0562650982    -2.4850367481    -1.0269654245
| 24> *
| 25>
| 26>                          ****END OF INPUT****

CARTESIAN COORDINATES (ANGSTROEM)
---------------------------------
  O      0.620953    0.860376   -0.836095
  C      0.169367   -0.194005   -0.033598
  C      0.192308   -0.079299    1.514899
  C     -1.209514   -0.747568    1.576225
  C     -2.382404    0.235697    1.772506
  C     -2.341547    0.594384    0.258033
  C     -1.341542   -0.560291   -0.007252
  C     -1.808892   -1.673865   -0.882075
  O     -2.902072   -1.751795   -1.388768
  H      0.163945    1.664703   -0.567907
  H      0.739575   -1.072652   -0.356648
  H      1.010740   -0.600452    2.015443
  H      0.179864    0.956845    1.870443
  H     -1.259037   -1.728611    2.048540
  H     -3.311070   -0.271170    2.046084
  H     -2.207694    1.047284    2.484898
  H     -3.281836    0.459793   -0.277541
  H     -1.955746    1.592111    0.025975
  H     -1.056265   -2.485037   -1.026965

 Total Charge           Charge          ....    0
 Multiplicity           Mult            ....    1
 Number of Electrons    NEL             ....   68
 Basis Dimension        Dim             ....  339

ORBITAL ENERGIES
----------------

  NO   OCC          E(Eh)            E(eV)
   0   2.0000     -20.569428      -559.7226
   1   2.0000     -20.555825      -559.3524
   2   2.0000     -11.330046      -308.3062
   3   2.0000     -11.298885      -307.4583
   4   2.0000     -11.253434      -306.2215
   5   2.0000     -11.246525      -306.0335
   6   2.0000     -11.238380      -305.8119
   7   2.0000     -11.236163      -305.7515
   8   2.0000     -11.235476      -305.7329
   9   2.0000      -1.393740       -37.9256
  10   2.0000      -1.379252       -37.5313
  11   2.0000      -1.180814       -32.1316
  12   2.0000      -1.027011       -27.9464
  13   2.0000      -0.970939       -26.4206
  14   2.0000      -0.888077       -24.1658
  15   2.0000      -0.846292       -23.0288
  16   2.0000      -0.813011       -22.1232
  17   2.0000      -0.734789       -19.9946
  18   2.0000      -0.711718       -19.3668
  19   2.0000      -0.678026       -18.4500
  20   2.0000      -0.644596       -17.5404
  21   2.0000      -0.643763       -17.5177
  22   2.0000      -0.622804       -16.9473
  23   2.0000      -0.588526       -16.0146
  24   2.0000      -0.571795       -15.5593
  25   2.0000      -0.550995       -14.9933
  26   2.0000      -0.535837       -14.5809
  27   2.0000      -0.528633       -14.3848
  28   2.0000      -0.500684       -13.6243
  29   2.0000      -0.481873       -13.1124
  30   2.0000      -0.448420       -12.2021
  31   2.0000      -0.434275       -11.8172
  32   2.0000      -0.416486       -11.3332
  33   2.0000      -0.401909       -10.9365
  34   0.0000       0.114432         3.1139
  35   0.0000       0.129839         3.5331
  36   0.0000       0.144204         3.9240
  37   0.0000       0.157729         4.2920
  38   0.0000       0.168756         4.5921

MULLIKEN ATOMIC CHARGES
-----------------------
   0 O :   -0.440395
   1 C :   -0.058189
   2 C :   -0.195091
   3 C :   -0.143542
   4 C :   -0.242378
   5 C :   -0.275957
   6 C :    0.232149
   7 C :    0.042740
   8 O :   -0.271757
   9 H :    0.317402
  10 H :    0.098600
  11 H :    0.127494
  12 H :    0.117537
  13 H :    0.128721
  14 H :    0.129101
  15 H :    0.116168
  16 H :    0.153311
  17 H :    0.090897
  18 H :    0.073189
Sum of atomic charges:   -0.0000000

LOEWDIN ATOMIC CHARGES
----------------------
   0 O :   -0.000351
   1 C :   -0.299273
   2 C :   -0.200378
   3 C :   -0.143152
   4 C :   -0.218416
   5 C :   -0.187215
   6 C :   -0.195682
   7 C :   -0.265568
   8 O :    0.133170
   9 H :    0.174205
  10 H :    0.149194
  11 H :    0.131280
  12 H :    0.136929
  13 H :    0.136144
  14 H :    0.138172
  15 H :    0.126798
  16 H :    0.142799
  17 H :    0.125741
  18 H :    0.115605

  Mayer bond orders larger than 0.1
B(  0-O ,  1-C ) :   0.9909 B(  0-O ,  9-H ) :   0.8350 B(  1-C ,  2-C ) :   0.9351
B(  1-C ,  6-C ) :   0.8478 B(  1-C , 10-H ) :   0.9245 B(  2-C ,  3-C ) :   0.9137
B(  2-C , 11-H ) :   0.9219 B(  2-C , 12-H ) :   0.9075 B(  3-C ,  4-C ) :   0.9126
B(  3-C ,  6-C ) :   0.8295 B(  3-C , 13-H ) :   0.9037 B(  4-C ,  5-C ) :   0.9664
B(  4-C , 14-H ) :   0.9191 B(  4-C , 15-H ) :   0.9262 B(  5-C ,  6-C ) :   0.8804
B(  5-C , 16-H ) :   0.9062 B(  5-C , 17-H ) :   0.9185 B(  6-C ,  7-C ) :   0.8609
B(  7-C ,  8-O ) :   1.9825 B(  7-C , 18-H ) :   0.9489

MP2 TOTAL ENERGY:     -422.300234788 Eh
FINAL SINGLE POINT ENERGY      -422.300234788242

DIPOLE MOMENT
-------------
                                X             Y             Z
Electronic contribution:     -0.64955      -2.50107      -4.89634
Nuclear contribution   :      1.03097       2.84633       5.99055
                        -----------------------------------------
Total Dipole Moment    :      0.38142       0.34526       1.09421
                        -----------------------------------------
Magnitude (a.u.)       :      1.20913
Magnitude (Debye)      :      3.07335

                             ****ORCA TERMINATED NORMALLY****
TOTAL RUN TIME: 0 days 0 hours 18 minutes 24 seconds 319 msec
