                         Program Version 3.0.3 - RELEASE   -
|  1> ! RI-MP2 RIJK def2-TZVP def2-TZVP/C def2-TZVP/JK TIGHTSCF
|  2> % maxcore 2000
|  3> % mp2 density relaxed end
|  4> *xyz 0 1
|  5>  C        0.0003891524    -1.1970556045     0.0620449753
|  6>  C        0.0086371539     0.0032631856     0.0010033984
|  7>  C        0.0625803688     1.4596393112    -0.0762962397
|  8>  C        1.4780919475     1.9815199772    -0.0614443758
|  9>  N        2.4920404443     1.7156531624    -1.1327249338
| 10>  C        3.2244521599     2.5685027748    -0.1393286652
| 11>  C        1.9640169658     3.4508271358     0.1239174430
| 12>  N        1.9798913797     3.3183742942     1.6170688417
| 13>  C        2.4981105748     1.9987309070     1.1281771100
| 14>  H       -0.0276279895    -2.2570594604     0.1164366429
| 15>  H       -0.4366690012     1.8045007749    -0.9904000533
| 16>  H       -0.4695346775     1.9069166100     0.7726021756
| 17>  H        2.8114295403     0.7449394565    -1.0733565906
| 18>  H        4.2633355117     2.8796311913    -0.2616316817
| 19>  H        1.6309017397     4.3418880268    -0.4083860838
| 20>  H        2.7423026082     3.8746503506     2.0124414475
| 21>  H        2.7900590412     1.1784948765     1.7866966794
| 22> *
| 23>
| 24>                          ****END OF INPUT****

CARTESIAN COORDINATES (ANGSTROEM)
---------------------------------
  C      0.000389   -1.197056    0.062045
  C      0.008637    0.003263    0.001003
  C      0.062580    1.459639   -0.076296
  C      1.478092    1.981520   -0.061444
  N      2.492040    1.715653   -1.132725
  C      3.224452    2.568503   -0.139329
  C      1.964017    3.450827    0.123917
  N      1.979891    3.318374    1.617069
  C      2.498111    1.998731    1.128177
  H     -0.027628   -2.257059    0.116437
  H     -0.436669    1.804501   -0.990400
  H     -0.469535    1.906917    0.772602
  H      2.811430    0.744939   -1.073357
  H      4.263336    2.879631   -0.261632
  H      1.630902    4.341888   -0.408386
  H      2.742303    3.874650    2.012441
  H      2.790059    1.178495    1.786697

 Total Charge           Charge          ....    0
 Multiplicity           Mult            ....    1
 Number of Electrons    NEL             ....   64
 Basis Dimension        Dim             ....  327

ORBITAL ENERGIES
----------------

  NO   OCC          E(Eh)            E(eV)
   0   2.0000     -15.557066      -423.3293
   1   2.0000     -15.554102      -423.2486
   2   2.0000     -11.287704      -307.1541
   3   2.0000     -11.278880      -306.9139
   4   2.0000     -11.278288      -306.8978
   5   2.0000     -11.277218      -306.8687
   6   2.0000     -11.258935      -306.3712
   7   2.0000     -11.238103      -305.8043
   8   2.0000     -11.224039      -305.4216
   9   2.0000      -1.333601       -36.2891
  10   2.0000      -1.182981       -32.1905
  11   2.0000      -1.076063       -29.2812
  12   2.0000      -0.987001       -26.8576
  13   2.0000      -0.955636       -26.0042
  14   2.0000      -0.888409       -24.1749
  15   2.0000      -0.853348       -23.2208
  16   2.0000      -0.728434       -19.8217
  17   2.0000      -0.716063       -19.4851
  18   2.0000      -0.689578       -18.7644
  19   2.0000      -0.668570       -18.1927
  20   2.0000      -0.640446       -17.4274
  21   2.0000      -0.618904       -16.8412
  22   2.0000      -0.603796       -16.4301
  23   2.0000      -0.562282       -15.3005
  24   2.0000      -0.497741       -13.5442
  25   2.0000      -0.486030       -13.2256
  26   2.0000      -0.468496       -12.7484
  27   2.0000      -0.434252       -11.8166
  28   2.0000      -0.405218       -11.0265
  29   2.0000      -0.390060       -10.6141
  30   2.0000      -0.383610       -10.4386
  31   2.0000      -0.374888       -10.2012
  32   0.0000       0.139560         3.7976
  33   0.0000       0.145666         3.9638
  34   0.0000       0.157403         4.2832
  35   0.0000       0.169293         4.6067
  36   0.0000       0.176631         4.8064

MULLIKEN ATOMIC CHARGES
-----------------------
   0 C :   -0.171921
   1 C :   -0.045700
   2 C :   -0.321843
   3 C :    0.052593
   4 N :   -0.338786
   5 C :   -0.081496
   6 C :   -0.023448
   7 N :   -0.355604
   8 C :   -0.034460
   9 H :    0.190303
  10 H :    0.151150
  11 H :    0.170464
  12 H :    0.208877
  13 H :    0.132994
  14 H :    0.129917
  15 H :    0.200884
  16 H :    0.136075
Sum of atomic charges:    0.0000000

LOEWDIN ATOMIC CHARGES
----------------------
   0 C :   -0.104948
   1 C :   -0.103300
   2 C :   -0.209652
   3 C :   -0.220960
   4 N :    0.018357
   5 C :   -0.196107
   6 C :   -0.166290
   7 N :   -0.009272
   8 C :   -0.177298
   9 H :    0.126768
  10 H :    0.167737
  11 H :    0.174240
  12 H :    0.162887
  13 H :    0.124038
  14 H :    0.128068
  15 H :    0.158530
  16 H :    0.127202

  Mayer bond orders larger than 0.1
B(  0-C ,  1-C ) :   2.6032 B(  0-C ,  9-H ) :   0.9031 B(  1-C ,  2-C ) :   1.1010
B(  2-C ,  3-C ) :   0.8354 B(  2-C , 10-H ) :   0.9147 B(  2-C , 11-H ) :   0.9230
B(  3-C ,  4-N ) :   0.9432 B(  3-C ,  6-C ) :   0.8476 B(  3-C ,  8-C ) :   0.8408
B(  4-N ,  5-C ) :   0.9020 B(  4-N , 12-H ) :   0.8722 B(  5-C ,  6-C ) :   0.8642
B(  5-C ,  8-C ) :   0.8413 B(  5-C , 13-H ) :   0.9120 B(  6-C ,  7-N ) :   0.9171
B(  6-C , 14-H ) :   0.8874 B(  7-N ,  8-C ) :   0.8980 B(  7-N , 15-H ) :   0.8688
B(  8-C , 16-H ) :   0.9046

MP2 TOTAL ENERGY:     -380.036654677 Eh
FINAL SINGLE POINT ENERGY      -380.036654676837

DIPOLE MOMENT
-------------
                                X             Y             Z
Electronic contribution:     -0.24952      -0.59044      -0.25674
Nuclear contribution   :      0.80920       0.57020       0.50864
                        -----------------------------------------
Total Dipole Moment    :      0.55968      -0.02024       0.25190
                        -----------------------------------------
Magnitude (a.u.)       :      0.61409
Magnitude (Debye)      :      1.56090

                             ****ORCA TERMINATED NORMALLY****
TOTAL RUN TIME: 0 days 0 hours 17 minutes 40 seconds 906 msec
