                         Program Version 3.0.3 - RELEASE   -
|  1> ! RI-MP2 RIJK def2-TZVP def2-TZVP/C def2-TZVP/JK TIGHTSCF
|  2> % maxcore 2000
|  3> % mp2 density relaxed end
|  4> *xyz 0 1
|  5>  C        0.5573633775     1.4400489422     1.3360330334
|  6>  C        0.5848173122     0.1283628352     0.5451133937
|  7>  N        0.8106568212    -1.0041834089     1.4216160843
|  8>  C        0.0266015029    -1.9579101322     1.6870318747
|  9>  C        0.4876806047    -3.1201332412     2.5343497292
| 10>  C        1.9639411974    -3.0793074605     2.8967177410
| 11>  O        2.2315012747    -4.2418522246     3.6722766669
| 12>  O       -1.2718131465    -2.1999200462     1.3168994878
| 13>  C       -2.1794102151    -1.1540900494     0.9975898079
| 14>  H        1.4511666617     1.5239956859     1.9605872815
| 15>  H        0.5213539982     2.2989603124     0.6585717146
| 16>  H       -0.3154208241     1.4884613876     1.9959935933
| 17>  H       -0.3069825777     0.0525929811    -0.0871792752
| 18>  H        1.4409104918     0.1598772957    -0.1414022674
| 19>  H       -0.1170708355    -3.1557316932     3.4487262068
| 20>  H        0.2635478989    -4.0503429509     1.9991232653
| 21>  H        2.5704615711    -3.0538432671     1.9803226347
| 22>  H        2.1845398353    -2.1584864166     3.4531977264
| 23>  H        3.1603023149    -4.2239281874     3.9190000510
| 24>  H       -3.1739448136    -1.5193961900     1.2679804647
| 25>  H       -1.9665944625    -0.2465270783     1.5701219735
| 26>  H       -2.1717469176    -0.9213116936    -0.0723339282
| 27> *
| 28>
| 29>                          ****END OF INPUT****

CARTESIAN COORDINATES (ANGSTROEM)
---------------------------------
  C      0.557363    1.440049    1.336033
  C      0.584817    0.128363    0.545113
  N      0.810657   -1.004183    1.421616
  C      0.026602   -1.957910    1.687032
  C      0.487681   -3.120133    2.534350
  C      1.963941   -3.079307    2.896718
  O      2.231501   -4.241852    3.672277
  O     -1.271813   -2.199920    1.316899
  C     -2.179410   -1.154090    0.997590
  H      1.451167    1.523996    1.960587
  H      0.521354    2.298960    0.658572
  H     -0.315421    1.488461    1.995994
  H     -0.306983    0.052593   -0.087179
  H      1.440910    0.159877   -0.141402
  H     -0.117071   -3.155732    3.448726
  H      0.263548   -4.050343    1.999123
  H      2.570462   -3.053843    1.980323
  H      2.184540   -2.158486    3.453198
  H      3.160302   -4.223928    3.919000
  H     -3.173945   -1.519396    1.267980
  H     -1.966594   -0.246527    1.570122
  H     -2.171747   -0.921312   -0.072334

 Total Charge           Charge          ....    0
 Multiplicity           Mult            ....    1
 Number of Electrons    NEL             ....   72
 Basis Dimension        Dim             ....  357

ORBITAL ENERGIES
----------------

  NO   OCC          E(Eh)            E(eV)
   0   2.0000     -20.585705      -560.1655
   1   2.0000     -20.547517      -559.1264
   2   2.0000     -15.534866      -422.7252
   3   2.0000     -11.334127      -308.4173
   4   2.0000     -11.288884      -307.1862
   5   2.0000     -11.264747      -306.5294
   6   2.0000     -11.252727      -306.2023
   7   2.0000     -11.222241      -305.3727
   8   2.0000     -11.215886      -305.1998
   9   2.0000      -1.413513       -38.4637
  10   2.0000      -1.351067       -36.7644
  11   2.0000      -1.212870       -33.0039
  12   2.0000      -1.054632       -28.6980
  13   2.0000      -0.995759       -27.0960
  14   2.0000      -0.962505       -26.1911
  15   2.0000      -0.865464       -23.5505
  16   2.0000      -0.838072       -22.8051
  17   2.0000      -0.750672       -20.4268
  18   2.0000      -0.702983       -19.1291
  19   2.0000      -0.679792       -18.4981
  20   2.0000      -0.663993       -18.0682
  21   2.0000      -0.648353       -17.6426
  22   2.0000      -0.635510       -17.2931
  23   2.0000      -0.609046       -16.5730
  24   2.0000      -0.575995       -15.6736
  25   2.0000      -0.563622       -15.3369
  26   2.0000      -0.546864       -14.8809
  27   2.0000      -0.538400       -14.6506
  28   2.0000      -0.525445       -14.2981
  29   2.0000      -0.512564       -13.9476
  30   2.0000      -0.501344       -13.6423
  31   2.0000      -0.486483       -13.2379
  32   2.0000      -0.474426       -12.9098
  33   2.0000      -0.435509       -11.8508
  34   2.0000      -0.394749       -10.7417
  35   2.0000      -0.381874       -10.3913
  36   0.0000       0.134799         3.6681
  37   0.0000       0.146546         3.9877
  38   0.0000       0.160883         4.3778
  39   0.0000       0.168423         4.5830
  40   0.0000       0.176763         4.8100

MULLIKEN ATOMIC CHARGES
-----------------------
   0 C :   -0.360417
   1 C :   -0.119681
   2 N :   -0.274780
   3 C :    0.173892
   4 C :   -0.149497
   5 C :   -0.049382
   6 O :   -0.470260
   7 O :   -0.271204
   8 C :   -0.234022
   9 H :    0.133698
  10 H :    0.124532
  11 H :    0.111355
  12 H :    0.088836
  13 H :    0.122590
  14 H :    0.123730
  15 H :    0.131230
  16 H :    0.095220
  17 H :    0.098085
  18 H :    0.314589
  19 H :    0.149719
  20 H :    0.127648
  21 H :    0.134117
Sum of atomic charges:    0.0000000

LOEWDIN ATOMIC CHARGES
----------------------
   0 C :   -0.317815
   1 C :   -0.327379
   2 N :    0.109245
   3 C :   -0.371022
   4 C :   -0.231570
   5 C :   -0.345558
   6 O :   -0.057745
   7 O :    0.215104
   8 C :   -0.330236
   9 H :    0.124387
  10 H :    0.121373
  11 H :    0.114386
  12 H :    0.119177
  13 H :    0.134338
  14 H :    0.151227
  15 H :    0.153616
  16 H :    0.117245
  17 H :    0.117276
  18 H :    0.170856
  19 H :    0.115346
  20 H :    0.111199
  21 H :    0.106548

  Mayer bond orders larger than 0.1
B(  0-C ,  1-C ) :   0.9286 B(  0-C ,  9-H ) :   0.9373 B(  0-C , 10-H ) :   0.9360
B(  0-C , 11-H ) :   0.9318 B(  1-C ,  2-N ) :   0.8868 B(  1-C , 12-H ) :   0.9186
B(  1-C , 13-H ) :   0.9328 B(  2-N ,  3-C ) :   1.8282 B(  3-C ,  4-C ) :   0.9248
B(  3-C ,  7-O ) :   1.0708 B(  4-C ,  5-C ) :   0.9421 B(  4-C , 14-H ) :   0.9047
B(  4-C , 15-H ) :   0.9172 B(  5-C ,  6-O ) :   1.0008 B(  5-C , 16-H ) :   0.9321
B(  5-C , 17-H ) :   0.9295 B(  6-O , 18-H ) :   0.8512 B(  7-O ,  8-C ) :   0.8670
B(  8-C , 19-H ) :   0.9376 B(  8-C , 20-H ) :   0.9338 B(  8-C , 21-H ) :   0.9345

MP2 TOTAL ENERGY:     -440.749129478 Eh
FINAL SINGLE POINT ENERGY      -440.749129477920

DIPOLE MOMENT
-------------
                                X             Y             Z
Electronic contribution:      0.88136      -7.03313       1.52753
Nuclear contribution   :     -1.09681       7.83807      -1.88201
                        -----------------------------------------
Total Dipole Moment    :     -0.21545       0.80494      -0.35448
                        -----------------------------------------
Magnitude (a.u.)       :      0.90554
Magnitude (Debye)      :      2.30170

                             ****ORCA TERMINATED NORMALLY****
TOTAL RUN TIME: 0 days 0 hours 17 minutes 39 seconds 374 msec
