                         Program Version 3.0.3 - RELEASE   -
|  1> ! RI-MP2 RIJK def2-TZVP def2-TZVP/C def2-TZVP/JK TIGHTSCF
|  2> % maxcore 2000
|  3> % mp2 density relaxed end
|  4> *xyz 0 1
|  5>  C        0.0129055024     1.5330114903    -0.0030361655
|  6>  C       -0.0800947289    -0.0090013803     0.0422335673
|  7>  C       -1.5585944797    -0.4366898406     0.1258938740
|  8>  N        0.4991755023    -0.5802005403    -1.1862131769
|  9>  C        1.7014324496    -1.2127110466    -1.3578377553
| 10>  O        2.1490663850    -1.5299193559    -2.4445462470
| 11>  N        2.3720759988    -1.4921986259    -0.1743312596
| 12>  C        1.8319245268    -1.2214991646     1.0747259859
| 13>  C        0.6923617903    -0.5462309710     1.2234169181
| 14>  H        1.0555121905     1.8503594424    -0.0852934672
| 15>  H       -0.5401268845     1.9301440024    -0.8624451053
| 16>  H       -0.4125828138     1.9740802245     0.9043696648
| 17>  H       -2.1191801371    -0.0675253467    -0.7407659740
| 18>  H       -1.6411143704    -1.5258211762     0.1543810858
| 19>  H       -2.0281250805    -0.0261447157     1.0254152604
| 20>  H        0.0548020549    -0.3464933752    -2.0612665656
| 21>  H        3.2102270428    -2.0373588446    -0.2793253886
| 22>  H        2.4050617611    -1.5944529896     1.9155478371
| 23>  H        0.3023721804    -0.3434770463     2.2125358417
| 24> *
| 25>
| 26>                          ****END OF INPUT****

CARTESIAN COORDINATES (ANGSTROEM)
---------------------------------
  C      0.012906    1.533011   -0.003036
  C     -0.080095   -0.009001    0.042234
  C     -1.558594   -0.436690    0.125894
  N      0.499176   -0.580201   -1.186213
  C      1.701432   -1.212711   -1.357838
  O      2.149066   -1.529919   -2.444546
  N      2.372076   -1.492199   -0.174331
  C      1.831925   -1.221499    1.074726
  C      0.692362   -0.546231    1.223417
  H      1.055512    1.850359   -0.085293
  H     -0.540127    1.930144   -0.862445
  H     -0.412583    1.974080    0.904370
  H     -2.119180   -0.067525   -0.740766
  H     -1.641114   -1.525821    0.154381
  H     -2.028125   -0.026145    1.025415
  H      0.054802   -0.346493   -2.061267
  H      3.210227   -2.037359   -0.279325
  H      2.405062   -1.594453    1.915548
  H      0.302372   -0.343477    2.212536

 Total Charge           Charge          ....    0
 Multiplicity           Mult            ....    1
 Number of Electrons    NEL             ....   68
 Basis Dimension        Dim             ....  339

ORBITAL ENERGIES
----------------

  NO   OCC          E(Eh)            E(eV)
   0   2.0000     -20.504018      -557.9427
   1   2.0000     -15.592872      -424.3036
   2   2.0000     -15.576430      -423.8562
   3   2.0000     -11.374903      -309.5268
   4   2.0000     -11.294858      -307.3487
   5   2.0000     -11.286702      -307.1268
   6   2.0000     -11.228178      -305.5343
   7   2.0000     -11.226613      -305.4917
   8   2.0000     -11.225063      -305.4495
   9   2.0000      -1.390826       -37.8463
  10   2.0000      -1.269067       -34.5331
  11   2.0000      -1.214515       -33.0486
  12   2.0000      -1.083792       -29.4915
  13   2.0000      -1.007020       -27.4024
  14   2.0000      -0.946159       -25.7463
  15   2.0000      -0.876204       -23.8427
  16   2.0000      -0.838142       -22.8070
  17   2.0000      -0.764139       -20.7933
  18   2.0000      -0.713836       -19.4245
  19   2.0000      -0.672204       -18.2916
  20   2.0000      -0.647003       -17.6058
  21   2.0000      -0.633018       -17.2253
  22   2.0000      -0.617156       -16.7937
  23   2.0000      -0.596689       -16.2367
  24   2.0000      -0.576458       -15.6862
  25   2.0000      -0.570140       -15.5143
  26   2.0000      -0.553061       -15.0495
  27   2.0000      -0.537319       -14.6212
  28   2.0000      -0.504786       -13.7359
  29   2.0000      -0.492896       -13.4124
  30   2.0000      -0.486197       -13.2301
  31   2.0000      -0.433925       -11.8077
  32   2.0000      -0.392085       -10.6692
  33   2.0000      -0.326600        -8.8872
  34   0.0000       0.124273         3.3816
  35   0.0000       0.143954         3.9172
  36   0.0000       0.146702         3.9920
  37   0.0000       0.165894         4.5142
  38   0.0000       0.179037         4.8718

MULLIKEN ATOMIC CHARGES
-----------------------
   0 C :   -0.382899
   1 C :    0.235108
   2 C :   -0.398283
   3 N :   -0.338896
   4 C :    0.309814
   5 O :   -0.381329
   6 N :   -0.298075
   7 C :   -0.023410
   8 C :   -0.280538
   9 H :    0.143072
  10 H :    0.125415
  11 H :    0.123014
  12 H :    0.128576
  13 H :    0.144711
  14 H :    0.125439
  15 H :    0.240559
  16 H :    0.253439
  17 H :    0.141279
  18 H :    0.133005
Sum of atomic charges:   -0.0000000

LOEWDIN ATOMIC CHARGES
----------------------
   0 C :   -0.265631
   1 C :   -0.343699
   2 C :   -0.265989
   3 N :    0.160427
   4 C :   -0.538234
   5 O :    0.048370
   6 N :    0.132772
   7 C :   -0.214233
   8 C :   -0.164034
   9 H :    0.128950
  10 H :    0.123244
  11 H :    0.127029
  12 H :    0.123956
  13 H :    0.128865
  14 H :    0.127638
  15 H :    0.196122
  16 H :    0.198000
  17 H :    0.144681
  18 H :    0.151765

  Mayer bond orders larger than 0.1
B(  0-C ,  1-C ) :   0.9316 B(  0-C ,  9-H ) :   0.9342 B(  0-C , 10-H ) :   0.9246
B(  0-C , 11-H ) :   0.9291 B(  1-C ,  2-C ) :   0.9219 B(  1-C ,  3-N ) :   0.8298
B(  1-C ,  8-C ) :   0.8816 B(  2-C , 12-H ) :   0.9279 B(  2-C , 13-H ) :   0.9377
B(  2-C , 14-H ) :   0.9300 B(  3-N ,  4-C ) :   1.1649 B(  3-N , 15-H ) :   0.8649
B(  4-C ,  5-O ) :   1.9800 B(  4-C ,  6-N ) :   1.0454 B(  6-N ,  7-C ) :   1.0325
B(  6-N , 16-H ) :   0.8666 B(  7-C ,  8-C ) :   1.7711 B(  7-C , 17-H ) :   0.9123
B(  8-C , 18-H ) :   0.9217

MP2 TOTAL ENERGY:     -418.565277166 Eh
FINAL SINGLE POINT ENERGY      -418.565277165606

DIPOLE MOMENT
-------------
                                X             Y             Z
Electronic contribution:      7.09715      -5.10483      -3.92315
Nuclear contribution   :     -7.59638       5.49026       5.18789
                        -----------------------------------------
Total Dipole Moment    :     -0.49923       0.38544       1.26474
                        -----------------------------------------
Magnitude (a.u.)       :      1.41328
Magnitude (Debye)      :      3.59227

                             ****ORCA TERMINATED NORMALLY****
TOTAL RUN TIME: 0 days 0 hours 19 minutes 43 seconds 952 msec
