                         Program Version 3.0.3 - RELEASE   -
|  1> ! RI-MP2 RIJK def2-TZVP def2-TZVP/C def2-TZVP/JK TIGHTSCF
|  2> % maxcore 2000
|  3> % mp2 density relaxed end
|  4> *xyz 0 1
|  5>  O        0.2284477885     0.8580489262    -0.8179725834
|  6>  C        0.0303290957    -0.2285066422     0.0581062935
|  7>  C       -0.0605039843     0.0161724916     1.5889468581
|  8>  C       -1.2383451963    -0.9962202179     1.6224037268
|  9>  C       -1.4154459758    -0.7937151618     0.0944664945
| 10>  C       -2.5040829998     0.1929334179    -0.3485250719
| 11>  C       -2.7556537439    -0.2411951817    -1.7988194777
| 12>  C       -2.5923265383    -1.7596599264    -1.6909142711
| 13>  O       -1.6223615907    -1.9769824558    -0.6641905253
| 14>  H        1.1623492516     1.0884992892    -0.8170211524
| 15>  H        0.7168130801    -1.0567873004    -0.1645456556
| 16>  H        0.8216203330    -0.2054037195     2.1930624792
| 17>  H       -0.3912602925     1.0375061887     1.7959938814
| 18>  H       -0.9040283515    -2.0145135038     1.8345381865
| 19>  H       -2.0955316832    -0.7613572047     2.2575202024
| 20>  H       -3.4032067376     0.0466517458     0.2614752402
| 21>  H       -2.1885459357     1.2332114487    -0.2607177772
| 22>  H       -3.7357142535     0.0544245575    -2.1813506818
| 23>  H       -1.9842851612     0.1816481887    -2.4489025347
| 24>  H       -3.5408306887    -2.2425798048    -1.4104885160
| 25>  H       -2.2353848558    -2.2273919353    -2.6145944555
| 26> *
| 27>
| 28>                          ****END OF INPUT****

CARTESIAN COORDINATES (ANGSTROEM)
---------------------------------
  O      0.228448    0.858049   -0.817973
  C      0.030329   -0.228507    0.058106
  C     -0.060504    0.016172    1.588947
  C     -1.238345   -0.996220    1.622404
  C     -1.415446   -0.793715    0.094466
  C     -2.504083    0.192933   -0.348525
  C     -2.755654   -0.241195   -1.798819
  C     -2.592327   -1.759660   -1.690914
  O     -1.622362   -1.976982   -0.664191
  H      1.162349    1.088499   -0.817021
  H      0.716813   -1.056787   -0.164546
  H      0.821620   -0.205404    2.193062
  H     -0.391260    1.037506    1.795994
  H     -0.904028   -2.014514    1.834538
  H     -2.095532   -0.761357    2.257520
  H     -3.403207    0.046652    0.261475
  H     -2.188546    1.233211   -0.260718
  H     -3.735714    0.054425   -2.181351
  H     -1.984285    0.181648   -2.448903
  H     -3.540831   -2.242580   -1.410489
  H     -2.235385   -2.227392   -2.614594

 Total Charge           Charge          ....    0
 Multiplicity           Mult            ....    1
 Number of Electrons    NEL             ....   70
 Basis Dimension        Dim             ....  351

ORBITAL ENERGIES
----------------

  NO   OCC          E(Eh)            E(eV)
   0   2.0000     -20.557722      -559.4041
   1   2.0000     -20.541276      -558.9565
   2   2.0000     -11.275257      -306.8153
   3   2.0000     -11.272685      -306.7454
   4   2.0000     -11.264865      -306.5326
   5   2.0000     -11.219581      -305.3003
   6   2.0000     -11.217407      -305.2412
   7   2.0000     -11.217385      -305.2406
   8   2.0000     -11.216405      -305.2139
   9   2.0000      -1.373109       -37.3642
  10   2.0000      -1.358645       -36.9706
  11   2.0000      -1.118576       -30.4380
  12   2.0000      -1.047622       -28.5072
  13   2.0000      -0.953798       -25.9542
  14   2.0000      -0.887342       -24.1458
  15   2.0000      -0.834137       -22.6980
  16   2.0000      -0.807000       -21.9596
  17   2.0000      -0.728844       -19.8329
  18   2.0000      -0.705051       -19.1854
  19   2.0000      -0.676066       -18.3967
  20   2.0000      -0.655637       -17.8408
  21   2.0000      -0.625959       -17.0332
  22   2.0000      -0.607414       -16.5286
  23   2.0000      -0.575765       -15.6674
  24   2.0000      -0.569182       -15.4882
  25   2.0000      -0.548018       -14.9123
  26   2.0000      -0.516626       -14.0581
  27   2.0000      -0.515429       -14.0255
  28   2.0000      -0.494237       -13.4489
  29   2.0000      -0.483798       -13.1648
  30   2.0000      -0.465540       -12.6680
  31   2.0000      -0.455331       -12.3902
  32   2.0000      -0.434671       -11.8280
  33   2.0000      -0.421396       -11.4668
  34   2.0000      -0.388775       -10.5791
  35   0.0000       0.134602         3.6627
  36   0.0000       0.151628         4.1260
  37   0.0000       0.157569         4.2877
  38   0.0000       0.177079         4.8186
  39   0.0000       0.185426         5.0457

MULLIKEN ATOMIC CHARGES
-----------------------
   0 O :   -0.463282
   1 C :   -0.009235
   2 C :   -0.233027
   3 C :   -0.271650
   4 C :    0.261460
   5 C :   -0.255707
   6 C :   -0.253156
   7 C :   -0.037915
   8 O :   -0.317571
   9 H :    0.315463
  10 H :    0.089948
  11 H :    0.119952
  12 H :    0.115503
  13 H :    0.125035
  14 H :    0.118075
  15 H :    0.116411
  16 H :    0.135203
  17 H :    0.124728
  18 H :    0.126433
  19 H :    0.086028
  20 H :    0.107303
Sum of atomic charges:    0.0000000

LOEWDIN ATOMIC CHARGES
----------------------
   0 O :   -0.016775
   1 C :   -0.298604
   2 C :   -0.232180
   3 C :   -0.199698
   4 C :   -0.309495
   5 C :   -0.213886
   6 C :   -0.260113
   7 C :   -0.298989
   8 O :    0.185886
   9 H :    0.176294
  10 H :    0.137610
  11 H :    0.122304
  12 H :    0.136156
  13 H :    0.140768
  14 H :    0.126892
  15 H :    0.140741
  16 H :    0.146275
  17 H :    0.134648
  18 H :    0.141961
  19 H :    0.118040
  20 H :    0.122163

  Mayer bond orders larger than 0.1
B(  0-O ,  1-C ) :   1.0722 B(  0-O ,  9-H ) :   0.8442 B(  1-C ,  2-C ) :   0.9260
B(  1-C ,  4-C ) :   0.9003 B(  1-C , 10-H ) :   0.9529 B(  2-C ,  3-C ) :   0.9279
B(  2-C , 11-H ) :   0.9299 B(  2-C , 12-H ) :   0.9104 B(  3-C ,  4-C ) :   0.8609
B(  3-C , 13-H ) :   0.9228 B(  3-C , 14-H ) :   0.9229 B(  4-C ,  5-C ) :   0.9252
B(  4-C ,  8-O ) :   0.9910 B(  5-C ,  6-C ) :   0.9405 B(  5-C , 15-H ) :   0.9307
B(  5-C , 16-H ) :   0.9019 B(  6-C ,  7-C ) :   0.9596 B(  6-C , 17-H ) :   0.9252
B(  6-C , 18-H ) :   0.9202 B(  7-C ,  8-O ) :   0.9345 B(  7-C , 19-H ) :   0.9277
B(  7-C , 20-H ) :   0.9236

MP2 TOTAL ENERGY:     -423.524939211 Eh
FINAL SINGLE POINT ENERGY      -423.524939210945

DIPOLE MOMENT
-------------
                                X             Y             Z
Electronic contribution:      2.20888      -1.10318      -1.13762
Nuclear contribution   :     -2.01253       1.45708       1.24733
                        -----------------------------------------
Total Dipole Moment    :      0.19635       0.35390       0.10971
                        -----------------------------------------
Magnitude (a.u.)       :      0.41932
Magnitude (Debye)      :      1.06583

                             ****ORCA TERMINATED NORMALLY****
TOTAL RUN TIME: 0 days 0 hours 18 minutes 36 seconds 723 msec
