                         Program Version 3.0.3 - RELEASE   -
|  1> ! RI-MP2 RIJK def2-TZVP def2-TZVP/C def2-TZVP/JK TIGHTSCF
|  2> % maxcore 2000
|  3> % mp2 density relaxed end
|  4> *xyz 0 1
|  5>  O        0.4747064197     0.8875842010     0.8008961693
|  6>  C       -0.0760390836    -0.1485097704     0.0360616134
|  7>  C       -1.5563507023     0.0243443825    -0.3085799667
|  8>  C       -1.6405023710    -0.7343231351    -1.6233236560
|  9>  C       -2.3557726162    -2.0382246485    -1.8166315602
| 10>  C       -2.8148322437    -0.7795437033    -2.5365593839
| 11>  O       -0.3567754633    -0.6162879326    -2.2589036317
| 12>  C        0.5627920556    -0.2243743316    -1.3517144924
| 13>  O        1.6999511043     0.0490724718    -1.6176579377
| 14>  H        1.3776646513     1.0104930239     0.4748105503
| 15>  H        0.0833703716    -1.1299516801     0.5164996217
| 16>  H       -2.2385820445    -0.3664575475     0.4474932512
| 17>  H       -1.7607651792     1.0905704384    -0.4544488327
| 18>  H       -1.8543358552    -2.7930549017    -2.4112914720
| 19>  H       -2.9576568486    -2.4208330114    -0.9993283607
| 20>  H       -3.7295903912    -0.2949523782    -2.2124493041
| 21>  H       -2.6146411535    -0.7139248573    -3.5997688780
| 22> *
| 23>
| 24>                          ****END OF INPUT****

CARTESIAN COORDINATES (ANGSTROEM)
---------------------------------
  O      0.474706    0.887584    0.800896
  C     -0.076039   -0.148510    0.036062
  C     -1.556351    0.024344   -0.308580
  C     -1.640502   -0.734323   -1.623324
  C     -2.355773   -2.038225   -1.816632
  C     -2.814832   -0.779544   -2.536559
  O     -0.356775   -0.616288   -2.258904
  C      0.562792   -0.224374   -1.351714
  O      1.699951    0.049072   -1.617658
  H      1.377665    1.010493    0.474811
  H      0.083370   -1.129952    0.516500
  H     -2.238582   -0.366458    0.447493
  H     -1.760765    1.090570   -0.454449
  H     -1.854336   -2.793055   -2.411291
  H     -2.957657   -2.420833   -0.999328
  H     -3.729590   -0.294952   -2.212449
  H     -2.614641   -0.713925   -3.599769

 Total Charge           Charge          ....    0
 Multiplicity           Mult            ....    1
 Number of Electrons    NEL             ....   68
 Basis Dimension        Dim             ....  327

ORBITAL ENERGIES
----------------

  NO   OCC          E(Eh)            E(eV)
   0   2.0000     -20.617207      -561.0227
   1   2.0000     -20.575449      -559.8864
   2   2.0000     -20.555813      -559.3521
   3   2.0000     -11.387386      -309.8665
   4   2.0000     -11.320384      -308.0433
   5   2.0000     -11.314032      -307.8705
   6   2.0000     -11.256090      -306.2938
   7   2.0000     -11.248476      -306.0866
   8   2.0000     -11.247806      -306.0684
   9   2.0000      -1.476813       -40.1861
  10   2.0000      -1.392493       -37.8917
  11   2.0000      -1.376731       -37.4628
  12   2.0000      -1.165373       -31.7114
  13   2.0000      -1.072557       -29.1857
  14   2.0000      -0.922553       -25.1040
  15   2.0000      -0.854036       -23.2395
  16   2.0000      -0.837595       -22.7921
  17   2.0000      -0.796364       -21.6702
  18   2.0000      -0.718532       -19.5522
  19   2.0000      -0.706189       -19.2164
  20   2.0000      -0.690247       -18.7826
  21   2.0000      -0.657519       -17.8920
  22   2.0000      -0.643077       -17.4990
  23   2.0000      -0.628389       -17.0993
  24   2.0000      -0.596085       -16.2203
  25   2.0000      -0.579182       -15.7604
  26   2.0000      -0.563934       -15.3454
  27   2.0000      -0.541454       -14.7337
  28   2.0000      -0.531747       -14.4696
  29   2.0000      -0.504266       -13.7218
  30   2.0000      -0.484129       -13.1738
  31   2.0000      -0.448234       -12.1971
  32   2.0000      -0.438747       -11.9389
  33   2.0000      -0.414617       -11.2823
  34   0.0000       0.124352         3.3838
  35   0.0000       0.145742         3.9658
  36   0.0000       0.161745         4.4013
  37   0.0000       0.167482         4.5574
  38   0.0000       0.172003         4.6804

MULLIKEN ATOMIC CHARGES
-----------------------
   0 O :   -0.468449
   1 C :    0.066329
   2 C :   -0.183097
   3 C :    0.158531
   4 C :   -0.304337
   5 C :   -0.275828
   6 O :   -0.196457
   7 C :    0.224248
   8 O :   -0.302976
   9 H :    0.338218
  10 H :    0.105220
  11 H :    0.138185
  12 H :    0.129036
  13 H :    0.148149
  14 H :    0.134697
  15 H :    0.139098
  16 H :    0.149434
Sum of atomic charges:    0.0000000

LOEWDIN ATOMIC CHARGES
----------------------
   0 O :   -0.000977
   1 C :   -0.322627
   2 C :   -0.184408
   3 C :   -0.291835
   4 C :   -0.200504
   5 C :   -0.196722
   6 O :    0.315880
   7 C :   -0.455576
   8 O :    0.133891
   9 H :    0.189840
  10 H :    0.152394
  11 H :    0.146414
  12 H :    0.153824
  13 H :    0.141785
  14 H :    0.135638
  15 H :    0.138468
  16 H :    0.144514

  Mayer bond orders larger than 0.1
B(  0-O ,  1-C ) :   1.0617 B(  0-O ,  9-H ) :   0.8165 B(  1-C ,  2-C ) :   0.9198
B(  1-C ,  7-C ) :   0.9222 B(  1-C , 10-H ) :   0.9207 B(  2-C ,  3-C ) :   0.9095
B(  2-C , 11-H ) :   0.9094 B(  2-C , 12-H ) :   0.9051 B(  3-C ,  4-C ) :   0.8667
B(  3-C ,  5-C ) :   0.8685 B(  3-C ,  6-O ) :   0.8794 B(  4-C ,  5-C ) :   0.9245
B(  4-C , 13-H ) :   0.9202 B(  4-C , 14-H ) :   0.9159 B(  5-C , 15-H ) :   0.9186
B(  5-C , 16-H ) :   0.9196 B(  6-O ,  7-C ) :   1.1233 B(  7-C ,  8-O ) :   1.9912

MP2 TOTAL ENERGY:     -458.254964456 Eh
FINAL SINGLE POINT ENERGY      -458.254964455557

DIPOLE MOMENT
-------------
                                X             Y             Z
Electronic contribution:      6.90836       1.95460      -0.75015
Nuclear contribution   :     -8.14390      -2.47374       0.99355
                        -----------------------------------------
Total Dipole Moment    :     -1.23554      -0.51914       0.24340
                        -----------------------------------------
Magnitude (a.u.)       :      1.36210
Magnitude (Debye)      :      3.46217

                             ****ORCA TERMINATED NORMALLY****
TOTAL RUN TIME: 0 days 0 hours 15 minutes 15 seconds 946 msec
