                         Program Version 3.0.3 - RELEASE   -
|  1> ! RI-MP2 RIJK def2-TZVP def2-TZVP/C def2-TZVP/JK TIGHTSCF
|  2> % maxcore 2000
|  3> % mp2 density relaxed end
|  4> *xyz 0 1
|  5>  C        0.0985669769     1.4782907052     0.0733419838
|  6>  C        0.0142595241    -0.0187697602     0.0341151557
|  7>  C       -0.0963162152    -0.6936905800    -1.1315329702
|  8>  N       -0.1747719164    -2.0711477098    -1.1821017564
|  9>  C       -0.1419385187    -2.8076874043    -0.0259476265
| 10>  C       -0.0331779729    -2.2141670421     1.1814054746
| 11>  C        0.0528965682    -0.7661994171     1.2913654943
| 12>  N        0.1596238512    -0.0862353164     2.3918997009
| 13>  O        0.1831597168    -0.9535156236     3.5141625448
| 14>  H        1.0245413319     1.7991210881     0.5626568682
| 15>  H        0.0584311978     1.9086901030    -0.9311952413
| 16>  H       -0.7181118925     1.8943541210     0.6731007691
| 17>  H       -0.1293991334    -0.1901155470    -2.0901040219
| 18>  H       -0.2562190815    -2.5326084932    -2.0702910018
| 19>  H       -0.2085607968    -3.8817056574    -0.1514941080
| 20>  H       -0.0089043509    -2.8105889638     2.0807220184
| 21>  H        0.2632463713    -0.3275544126     4.2397599062
| 22> *
| 23>
| 24>                          ****END OF INPUT****

CARTESIAN COORDINATES (ANGSTROEM)
---------------------------------
  C      0.098567    1.478291    0.073342
  C      0.014260   -0.018770    0.034115
  C     -0.096316   -0.693691   -1.131533
  N     -0.174772   -2.071148   -1.182102
  C     -0.141939   -2.807687   -0.025948
  C     -0.033178   -2.214167    1.181405
  C      0.052897   -0.766199    1.291365
  N      0.159624   -0.086235    2.391900
  O      0.183160   -0.953516    3.514163
  H      1.024541    1.799121    0.562657
  H      0.058431    1.908690   -0.931195
  H     -0.718112    1.894354    0.673101
  H     -0.129399   -0.190116   -2.090104
  H     -0.256219   -2.532608   -2.070291
  H     -0.208561   -3.881706   -0.151494
  H     -0.008904   -2.810589    2.080722
  H      0.263246   -0.327554    4.239760

 Total Charge           Charge          ....    0
 Multiplicity           Mult            ....    1
 Number of Electrons    NEL             ....   66
 Basis Dimension        Dim             ....  327

ORBITAL ENERGIES
----------------

  NO   OCC          E(Eh)            E(eV)
   0   2.0000     -20.561354      -559.5029
   1   2.0000     -15.614114      -424.8816
   2   2.0000     -15.572499      -423.7492
   3   2.0000     -11.293726      -307.3179
   4   2.0000     -11.284066      -307.0550
   5   2.0000     -11.268390      -306.6285
   6   2.0000     -11.235474      -305.7328
   7   2.0000     -11.221485      -305.3521
   8   2.0000     -11.214027      -305.1492
   9   2.0000      -1.381939       -37.6045
  10   2.0000      -1.293820       -35.2066
  11   2.0000      -1.149617       -31.2827
  12   2.0000      -1.063781       -28.9469
  13   2.0000      -1.026829       -27.9414
  14   2.0000      -0.943503       -25.6740
  15   2.0000      -0.835651       -22.7392
  16   2.0000      -0.825841       -22.4723
  17   2.0000      -0.753796       -20.5118
  18   2.0000      -0.703795       -19.1512
  19   2.0000      -0.658865       -17.9286
  20   2.0000      -0.637493       -17.3471
  21   2.0000      -0.607322       -16.5261
  22   2.0000      -0.596736       -16.2380
  23   2.0000      -0.596117       -16.2212
  24   2.0000      -0.565479       -15.3875
  25   2.0000      -0.555623       -15.1193
  26   2.0000      -0.546971       -14.8838
  27   2.0000      -0.531208       -14.4549
  28   2.0000      -0.498701       -13.5703
  29   2.0000      -0.419920       -11.4266
  30   2.0000      -0.410788       -11.1781
  31   2.0000      -0.369627       -10.0580
  32   2.0000      -0.274900        -7.4804
  33   0.0000       0.116780         3.1777
  34   0.0000       0.129664         3.5283
  35   0.0000       0.139219         3.7884
  36   0.0000       0.156351         4.2545
  37   0.0000       0.170206         4.6315

MULLIKEN ATOMIC CHARGES
-----------------------
   0 C :   -0.393270
   1 C :    0.022038
   2 C :   -0.051156
   3 N :   -0.255402
   4 C :    0.001470
   5 C :   -0.254337
   6 C :    0.050861
   7 N :   -0.141141
   8 O :   -0.394293
   9 H :    0.144909
  10 H :    0.118342
  11 H :    0.144918
  12 H :    0.137027
  13 H :    0.246978
  14 H :    0.145653
  15 H :    0.149495
  16 H :    0.327908
Sum of atomic charges:    0.0000000

LOEWDIN ATOMIC CHARGES
----------------------
   0 C :   -0.264682
   1 C :   -0.157775
   2 C :   -0.185629
   3 N :    0.150011
   4 C :   -0.205188
   5 C :   -0.146888
   6 C :   -0.275317
   7 N :   -0.014535
   8 O :   -0.097199
   9 H :    0.135529
  10 H :    0.124245
  11 H :    0.135530
  12 H :    0.144186
  13 H :    0.195388
  14 H :    0.143142
  15 H :    0.155797
  16 H :    0.163384

  Mayer bond orders larger than 0.1
B(  0-C ,  1-C ) :   0.9100 B(  0-C ,  9-H ) :   0.9230 B(  0-C , 10-H ) :   0.9412
B(  0-C , 11-H ) :   0.9230 B(  1-C ,  2-C ) :   1.6347 B(  1-C ,  6-C ) :   1.0564
B(  2-C ,  3-N ) :   1.0685 B(  2-C , 12-H ) :   0.8966 B(  3-N ,  4-C ) :   1.0994
B(  3-N , 13-H ) :   0.8781 B(  4-C ,  5-C ) :   1.6046 B(  4-C , 14-H ) :   0.9019
B(  5-C ,  6-C ) :   1.0878 B(  5-C , 15-H ) :   0.9068 B(  6-C ,  7-N ) :   1.7799
B(  7-N ,  8-O ) :   0.7624 B(  8-O , 16-H ) :   0.8501

MP2 TOTAL ENERGY:     -417.287749303 Eh
FINAL SINGLE POINT ENERGY      -417.287749303042

DIPOLE MOMENT
-------------
                                X             Y             Z
Electronic contribution:     -0.05534      -3.35506       2.02534
Nuclear contribution   :     -0.06330       2.76094      -3.38819
                        -----------------------------------------
Total Dipole Moment    :     -0.11865      -0.59412      -1.36285
                        -----------------------------------------
Magnitude (a.u.)       :      1.49144
Magnitude (Debye)      :      3.79095

                             ****ORCA TERMINATED NORMALLY****
TOTAL RUN TIME: 0 days 0 hours 15 minutes 23 seconds 104 msec
