                         Program Version 3.0.3 - RELEASE   -
|  1> ! RI-MP2 RIJK def2-TZVP def2-TZVP/C def2-TZVP/JK TIGHTSCF
|  2> % maxcore 2000
|  3> % mp2 density relaxed end
|  4> *xyz 0 1
|  5>  C       -0.0282465299     1.5096181047     0.0850368647
|  6>  C        1.5165257798     1.3683880824    -0.0051361574
|  7>  C        1.7815819555     0.6558866190     1.3274359110
|  8>  C        2.0386654577    -0.8612055816     1.2676208423
|  9>  C        2.5496597140    -1.4742081097     0.0345566366
| 10>  C        2.0963124311    -0.9553396200    -1.1083461123
| 11>  C        1.1589148414     0.1757860636    -0.9579929327
| 12>  N       -0.0539808039    -0.0142356157     0.0043847037
| 13>  C        0.6216951166    -0.3050799700     1.2920856437
| 14>  H       -0.4587579235     1.9187585228     1.0029852508
| 15>  H       -0.5050754450     1.9498098200    -0.7950478378
| 16>  H        2.1939745156     2.1702899469    -0.3045576688
| 17>  H        2.0997768787     1.2169213287     2.1971635233
| 18>  H        2.3610357028    -1.2929291129     2.2097067771
| 19>  H        3.2428102173    -2.3065621757     0.0882996903
| 20>  H        2.3778510474    -1.3134968620    -2.0913484013
| 21>  H        0.7574697044     0.5283311686    -1.9082807984
| 22>  H       -0.0372163598    -0.5325603893     2.1202453452
| 23> *
| 24>
| 25>                          ****END OF INPUT****

CARTESIAN COORDINATES (ANGSTROEM)
---------------------------------
  C     -0.028247    1.509618    0.085037
  C      1.516526    1.368388   -0.005136
  C      1.781582    0.655887    1.327436
  C      2.038665   -0.861206    1.267621
  C      2.549660   -1.474208    0.034557
  C      2.096312   -0.955340   -1.108346
  C      1.158915    0.175786   -0.957993
  N     -0.053981   -0.014236    0.004385
  C      0.621695   -0.305080    1.292086
  H     -0.458758    1.918759    1.002985
  H     -0.505075    1.949810   -0.795048
  H      2.193975    2.170290   -0.304558
  H      2.099777    1.216921    2.197164
  H      2.361036   -1.292929    2.209707
  H      3.242810   -2.306562    0.088300
  H      2.377851   -1.313497   -2.091348
  H      0.757470    0.528331   -1.908281
  H     -0.037216   -0.532560    2.120245

 Total Charge           Charge          ....    0
 Multiplicity           Mult            ....    1
 Number of Electrons    NEL             ....   64
 Basis Dimension        Dim             ....  333

ORBITAL ENERGIES
----------------

  NO   OCC          E(Eh)            E(eV)
   0   2.0000     -15.558509      -423.3685
   1   2.0000     -11.259975      -306.3995
   2   2.0000     -11.253565      -306.2251
   3   2.0000     -11.253394      -306.2204
   4   2.0000     -11.240979      -305.8826
   5   2.0000     -11.240390      -305.8666
   6   2.0000     -11.232325      -305.6471
   7   2.0000     -11.230493      -305.5972
   8   2.0000     -11.216853      -305.2261
   9   2.0000      -1.285500       -34.9802
  10   2.0000      -1.115551       -30.3557
  11   2.0000      -1.059047       -28.8181
  12   2.0000      -0.987554       -26.8727
  13   2.0000      -0.908197       -24.7133
  14   2.0000      -0.844364       -22.9763
  15   2.0000      -0.809202       -22.0195
  16   2.0000      -0.755105       -20.5475
  17   2.0000      -0.707288       -19.2463
  18   2.0000      -0.674589       -18.3565
  19   2.0000      -0.650678       -17.7059
  20   2.0000      -0.632296       -17.2056
  21   2.0000      -0.597377       -16.2555
  22   2.0000      -0.553793       -15.0695
  23   2.0000      -0.538688       -14.6584
  24   2.0000      -0.534517       -14.5450
  25   2.0000      -0.498558       -13.5664
  26   2.0000      -0.477999       -13.0070
  27   2.0000      -0.467644       -12.7252
  28   2.0000      -0.428883       -11.6705
  29   2.0000      -0.401294       -10.9198
  30   2.0000      -0.361884        -9.8474
  31   2.0000      -0.334763        -9.1094
  32   0.0000       0.137895         3.7523
  33   0.0000       0.143858         3.9146
  34   0.0000       0.164836         4.4854
  35   0.0000       0.169302         4.6069
  36   0.0000       0.180322         4.9068

MULLIKEN ATOMIC CHARGES
-----------------------
   0 C :   -0.177961
   1 C :   -0.026423
   2 C :   -0.180501
   3 C :   -0.180506
   4 C :   -0.085515
   5 C :   -0.297586
   6 C :    0.038020
   7 N :   -0.192233
   8 C :   -0.017763
   9 H :    0.121204
  10 H :    0.118181
  11 H :    0.120468
  12 H :    0.137423
  13 H :    0.125070
  14 H :    0.125556
  15 H :    0.122847
  16 H :    0.115151
  17 H :    0.134571
Sum of atomic charges:   -0.0000000

LOEWDIN ATOMIC CHARGES
----------------------
   0 C :   -0.217403
   1 C :   -0.172079
   2 C :   -0.157662
   3 C :   -0.163320
   4 C :   -0.133677
   5 C :   -0.154685
   6 C :   -0.195951
   7 N :    0.129043
   8 C :   -0.203879
   9 H :    0.125752
  10 H :    0.128493
  11 H :    0.134699
  12 H :    0.144491
  13 H :    0.156556
  14 H :    0.143629
  15 H :    0.141302
  16 H :    0.152736
  17 H :    0.141953

  Mayer bond orders larger than 0.1
B(  0-C ,  1-C ) :   0.9340 B(  0-C ,  7-N ) :   0.9096 B(  0-C ,  9-H ) :   0.9237
B(  0-C , 10-H ) :   0.9203 B(  1-C ,  2-C ) :   0.9275 B(  1-C ,  6-C ) :   0.9075
B(  1-C , 11-H ) :   0.9135 B(  2-C ,  3-C ) :   0.8451 B(  2-C ,  8-C ) :   0.8400
B(  2-C , 12-H ) :   0.9232 B(  3-C ,  4-C ) :   1.0048 B(  3-C ,  8-C ) :   0.8603
B(  3-C , 13-H ) :   0.9269 B(  4-C ,  5-C ) :   1.7310 B(  4-C , 14-H ) :   0.9357
B(  5-C ,  6-C ) :   0.9947 B(  5-C , 15-H ) :   0.9324 B(  6-C ,  7-N ) :   0.9072
B(  6-C , 16-H ) :   0.9235 B(  7-N ,  8-C ) :   0.9644 B(  8-C , 17-H ) :   0.9399

MP2 TOTAL ENERGY:     -364.106626589 Eh
FINAL SINGLE POINT ENERGY      -364.106626588641

DIPOLE MOMENT
-------------
                                X             Y             Z
Electronic contribution:     -0.01837      -1.52417      -0.27030
Nuclear contribution   :      0.48786       1.94396       0.53099
                        -----------------------------------------
Total Dipole Moment    :      0.46950       0.41979       0.26069
                        -----------------------------------------
Magnitude (a.u.)       :      0.68162
Magnitude (Debye)      :      1.73254

                             ****ORCA TERMINATED NORMALLY****
TOTAL RUN TIME: 0 days 0 hours 20 minutes 19 seconds 121 msec
