                         Program Version 3.0.3 - RELEASE   -
|  1> ! RI-MP2 RIJK def2-TZVP def2-TZVP/C def2-TZVP/JK TIGHTSCF
|  2> % maxcore 2000
|  3> % mp2 density relaxed end
|  4> *xyz 0 1
|  5>  C        0.0123419194     1.4899693279    -0.0008483673
|  6>  N       -0.0115783240     0.0357953616    -0.0620559244
|  7>  C        0.5593102886    -0.7100047302    -1.0346069887
|  8>  C        0.6300882861    -2.0745847663    -1.0425899387
|  9>  C        1.2433046215    -2.7437642452    -2.1427166727
| 10>  O        1.4001391697    -3.9176844060    -2.3325221689
| 11>  O        1.7348984903    -1.8621963675    -3.1491566454
| 12>  N        1.6330241259    -0.4838651825    -3.0717073421
| 13>  N        1.0871199387     0.0478326124    -2.0894340968
| 14>  H        1.0133204888     1.8796357447     0.2169145758
| 15>  H       -0.3242026018     1.9212258417    -0.9448256439
| 16>  H       -0.6675404423     1.8050892845     0.7926240231
| 17>  H       -0.3404562370    -0.4611991543     0.7486850777
| 18>  H        0.2341053259    -2.6835918509    -0.2393858276
| 19> *
| 20>
| 21>                          ****END OF INPUT****

CARTESIAN COORDINATES (ANGSTROEM)
---------------------------------
  C      0.012342    1.489969   -0.000848
  N     -0.011578    0.035795   -0.062056
  C      0.559310   -0.710005   -1.034607
  C      0.630088   -2.074585   -1.042590
  C      1.243305   -2.743764   -2.142717
  O      1.400139   -3.917684   -2.332522
  O      1.734898   -1.862196   -3.149157
  N      1.633024   -0.483865   -3.071707
  N      1.087120    0.047833   -2.089434
  H      1.013320    1.879636    0.216915
  H     -0.324203    1.921226   -0.944826
  H     -0.667540    1.805089    0.792624
  H     -0.340456   -0.461199    0.748685
  H      0.234105   -2.683592   -0.239386

 Total Charge           Charge          ....    0
 Multiplicity           Mult            ....    1
 Number of Electrons    NEL             ....   66
 Basis Dimension        Dim             ....  309

ORBITAL ENERGIES
----------------

  NO   OCC          E(Eh)            E(eV)
   0   2.0000     -20.655104      -562.0539
   1   2.0000     -20.539926      -558.9198
   2   2.0000     -15.747460      -428.5102
   3   2.0000     -15.657440      -426.0606
   4   2.0000     -15.621300      -425.0772
   5   2.0000     -11.392957      -310.0181
   6   2.0000     -11.374699      -309.5213
   7   2.0000     -11.290203      -307.2221
   8   2.0000     -11.253465      -306.2223
   9   2.0000      -1.524408       -41.4813
  10   2.0000      -1.405898       -38.2564
  11   2.0000      -1.342044       -36.5189
  12   2.0000      -1.284090       -34.9419
  13   2.0000      -1.114054       -30.3150
  14   2.0000      -0.983487       -26.7620
  15   2.0000      -0.979912       -26.6648
  16   2.0000      -0.893599       -24.3161
  17   2.0000      -0.779369       -21.2077
  18   2.0000      -0.762548       -20.7500
  19   2.0000      -0.713968       -19.4280
  20   2.0000      -0.693632       -18.8747
  21   2.0000      -0.662950       -18.0398
  22   2.0000      -0.644472       -17.5370
  23   2.0000      -0.640244       -17.4219
  24   2.0000      -0.621267       -16.9055
  25   2.0000      -0.583194       -15.8695
  26   2.0000      -0.564705       -15.3664
  27   2.0000      -0.561901       -15.2901
  28   2.0000      -0.533892       -14.5279
  29   2.0000      -0.485762       -13.2183
  30   2.0000      -0.456816       -12.4306
  31   2.0000      -0.440320       -11.9817
  32   2.0000      -0.352576        -9.5941
  33   0.0000       0.045532         1.2390
  34   0.0000       0.111674         3.0388
  35   0.0000       0.141126         3.8402
  36   0.0000       0.148133         4.0309
  37   0.0000       0.176519         4.8033

MULLIKEN ATOMIC CHARGES
-----------------------
   0 C :   -0.262673
   1 N :   -0.323543
   2 C :    0.271567
   3 C :   -0.301210
   4 C :    0.251344
   5 O :   -0.294347
   6 O :   -0.099031
   7 N :   -0.029113
   8 N :   -0.068185
   9 H :    0.147040
  10 H :    0.164340
  11 H :    0.143952
  12 H :    0.248660
  13 H :    0.151198
Sum of atomic charges:   -0.0000000

LOEWDIN ATOMIC CHARGES
----------------------
   0 C :   -0.307096
   1 N :    0.103048
   2 C :   -0.308148
   3 C :   -0.139435
   4 C :   -0.477453
   5 O :    0.136626
   6 O :    0.201947
   7 N :   -0.004775
   8 N :    0.073751
   9 H :    0.119123
  10 H :    0.126792
  11 H :    0.122663
  12 H :    0.193219
  13 H :    0.159740

  Mayer bond orders larger than 0.1
B(  0-C ,  1-N ) :   0.8603 B(  0-C ,  9-H ) :   0.9349 B(  0-C , 10-H ) :   0.9325
B(  0-C , 11-H ) :   0.9279 B(  1-N ,  2-C ) :   1.1931 B(  1-N , 12-H ) :   0.8784
B(  2-C ,  3-C ) :   1.3653 B(  2-C ,  8-N ) :   1.0497 B(  3-C ,  4-C ) :   1.1459
B(  3-C , 13-H ) :   0.9150 B(  4-C ,  5-O ) :   1.9849 B(  4-C ,  6-O ) :   0.9941
B(  6-O ,  7-N ) :   0.8919 B(  7-N ,  8-N ) :   1.4907

MP2 TOTAL ENERGY:     -469.216304022 Eh
FINAL SINGLE POINT ENERGY      -469.216304022498

DIPOLE MOMENT
-------------
                                X             Y             Z
Electronic contribution:      3.31287      -6.14395      -6.23860
Nuclear contribution   :     -4.39281       7.59185       8.29166
                        -----------------------------------------
Total Dipole Moment    :     -1.07994       1.44790       2.05306
                        -----------------------------------------
Magnitude (a.u.)       :      2.73454
Magnitude (Debye)      :      6.95066

                             ****ORCA TERMINATED NORMALLY****
TOTAL RUN TIME: 0 days 0 hours 14 minutes 43 seconds 440 msec
