                         Program Version 3.0.3 - RELEASE   -
|  1> ! RI-MP2 RIJK def2-TZVP def2-TZVP/C def2-TZVP/JK TIGHTSCF
|  2> % maxcore 2000
|  3> % mp2 density relaxed end
|  4> *xyz 0 1
|  5>  C       -0.0032016037     1.4798835932    -0.0482946307
|  6>  C        1.3729375412     2.1744627255     0.0289178672
|  7>  C        1.8433756491     2.5017298108     1.4483672126
|  8>  O        1.6980839728     1.3961373662     2.3463229426
|  9>  C        2.3813417507     0.2714232383     1.9688050499
| 10>  N        1.8434857258    -0.7721906366     1.5174636537
| 11>  C        0.3913103033    -0.7508057626     1.3067884822
| 12>  C       -0.0110631370    -0.0623725991    -0.0114340114
| 13>  H       -0.6536990163     1.8680398193     0.7463161588
| 14>  H       -0.4758905269     1.7731882100    -0.9929514747
| 15>  H        2.1249173378     1.5600087287    -0.4807392197
| 16>  H        1.3401825420     3.1260949326    -0.5158437148
| 17>  H        2.8879335589     2.8487539103     1.4380727755
| 18>  H        1.2292166262     3.2932255921     1.8871754996
| 19>  H        3.4649945267     0.3266019835     2.1071351810
| 20>  H        0.0629820223    -1.7936218102     1.2641658207
| 21>  H       -0.1282188089    -0.2701922484     2.1447989022
| 22>  H       -1.0301603102    -0.3913535574    -0.2493543388
| 23>  H        0.6300504563    -0.4486389962    -0.8141859260
| 24> *
| 25>
| 26>                          ****END OF INPUT****

CARTESIAN COORDINATES (ANGSTROEM)
---------------------------------
  C     -0.003202    1.479884   -0.048295
  C      1.372938    2.174463    0.028918
  C      1.843376    2.501730    1.448367
  O      1.698084    1.396137    2.346323
  C      2.381342    0.271423    1.968805
  N      1.843486   -0.772191    1.517464
  C      0.391310   -0.750806    1.306788
  C     -0.011063   -0.062373   -0.011434
  H     -0.653699    1.868040    0.746316
  H     -0.475891    1.773188   -0.992951
  H      2.124917    1.560009   -0.480739
  H      1.340183    3.126095   -0.515844
  H      2.887934    2.848754    1.438073
  H      1.229217    3.293226    1.887175
  H      3.464995    0.326602    2.107135
  H      0.062982   -1.793622    1.264166
  H     -0.128219   -0.270192    2.144799
  H     -1.030160   -0.391354   -0.249354
  H      0.630050   -0.448639   -0.814186

 Total Charge           Charge          ....    0
 Multiplicity           Mult            ....    1
 Number of Electrons    NEL             ....   62
 Basis Dimension        Dim             ....  314

ORBITAL ENERGIES
----------------

  NO   OCC          E(Eh)            E(eV)
   0   2.0000     -20.576379      -559.9117
   1   2.0000     -15.545705      -423.0201
   2   2.0000     -11.319359      -308.0154
   3   2.0000     -11.291558      -307.2589
   4   2.0000     -11.243551      -305.9526
   5   2.0000     -11.230676      -305.6022
   6   2.0000     -11.226233      -305.4813
   7   2.0000     -11.222206      -305.3717
   8   2.0000      -1.411672       -38.4135
   9   2.0000      -1.212972       -33.0066
  10   2.0000      -1.081921       -29.4406
  11   2.0000      -1.003716       -27.3125
  12   2.0000      -0.950097       -25.8534
  13   2.0000      -0.846142       -23.0247
  14   2.0000      -0.819979       -22.3128
  15   2.0000      -0.749005       -20.3815
  16   2.0000      -0.687026       -18.6949
  17   2.0000      -0.670887       -18.2558
  18   2.0000      -0.665337       -18.1047
  19   2.0000      -0.620046       -16.8723
  20   2.0000      -0.599908       -16.3243
  21   2.0000      -0.572336       -15.5741
  22   2.0000      -0.559410       -15.2223
  23   2.0000      -0.538279       -14.6473
  24   2.0000      -0.507082       -13.7984
  25   2.0000      -0.501664       -13.6510
  26   2.0000      -0.471353       -12.8262
  27   2.0000      -0.465037       -12.6543
  28   2.0000      -0.443738       -12.0747
  29   2.0000      -0.409104       -11.1323
  30   2.0000      -0.394772       -10.7423
  31   0.0000       0.136649         3.7184
  32   0.0000       0.142382         3.8744
  33   0.0000       0.164597         4.4789
  34   0.0000       0.173278         4.7151
  35   0.0000       0.184210         5.0126

MULLIKEN ATOMIC CHARGES
-----------------------
   0 C :   -0.205929
   1 C :   -0.233409
   2 C :   -0.083912
   3 O :   -0.301500
   4 C :    0.080823
   5 N :   -0.241654
   6 C :   -0.084003
   7 C :   -0.262005
   8 H :    0.109752
   9 H :    0.124573
  10 H :    0.128533
  11 H :    0.129295
  12 H :    0.116091
  13 H :    0.125727
  14 H :    0.118453
  15 H :    0.127181
  16 H :    0.114351
  17 H :    0.119972
  18 H :    0.117659
Sum of atomic charges:   -0.0000000

LOEWDIN ATOMIC CHARGES
----------------------
   0 C :   -0.265520
   1 C :   -0.278146
   2 C :   -0.306265
   3 O :    0.192357
   4 C :   -0.359725
   5 N :    0.086015
   6 C :   -0.289123
   7 C :   -0.270288
   8 H :    0.140207
   9 H :    0.140347
  10 H :    0.141456
  11 H :    0.143969
  12 H :    0.123835
  13 H :    0.132107
  14 H :    0.124336
  15 H :    0.131304
  16 H :    0.131122
  17 H :    0.141769
  18 H :    0.140245

  Mayer bond orders larger than 0.1
B(  0-C ,  1-C ) :   0.8890 B(  0-C ,  7-C ) :   0.9359 B(  0-C ,  8-H ) :   0.9282
B(  0-C ,  9-H ) :   0.9307 B(  1-C ,  2-C ) :   0.9389 B(  1-C , 10-H ) :   0.9267
B(  1-C , 11-H ) :   0.9236 B(  2-C ,  3-O ) :   0.8812 B(  2-C , 12-H ) :   0.9464
B(  2-C , 13-H ) :   0.9320 B(  3-O ,  4-C ) :   0.9863 B(  4-C ,  5-N ) :   1.9154
B(  4-C , 14-H ) :   0.9243 B(  5-N ,  6-C ) :   0.8693 B(  6-C ,  7-C ) :   0.9217
B(  6-C , 15-H ) :   0.9353 B(  6-C , 16-H ) :   0.9244 B(  7-C , 17-H ) :   0.9297
B(  7-C , 18-H ) :   0.9317

MP2 TOTAL ENERGY:     -364.443033684 Eh
FINAL SINGLE POINT ENERGY      -364.443033684040

DIPOLE MOMENT
-------------
                                X             Y             Z
Electronic contribution:      3.18378      -2.02473       4.52207
Nuclear contribution   :     -3.36687       2.86331      -4.95153
                        -----------------------------------------
Total Dipole Moment    :     -0.18309       0.83858      -0.42946
                        -----------------------------------------
Magnitude (a.u.)       :      0.95978
Magnitude (Debye)      :      2.43956

                             ****ORCA TERMINATED NORMALLY****
TOTAL RUN TIME: 0 days 0 hours 14 minutes 21 seconds 393 msec
