                         Program Version 3.0.3 - RELEASE   -
|  1> ! RI-MP2 RIJK def2-TZVP def2-TZVP/C def2-TZVP/JK TIGHTSCF
|  2> % maxcore 2000
|  3> % mp2 density relaxed end
|  4> *xyz 0 1
|  5>  C        0.6880908642     1.4516527044     0.4129801643
|  6>  C        0.1783727888     0.0736949141     0.1280566763
|  7>  N        0.4447492933    -0.5189076334    -1.0361205742
|  8>  N       -0.1699283293    -1.7202382570    -0.9693436089
|  9>  C        0.0313605137    -2.6610283188    -2.0619220944
| 10>  C       -1.0763194737    -3.5947224231    -2.2220594026
| 11>  C       -1.9697692009    -4.3849245739    -2.3602539487
| 12>  C       -0.8062153484    -1.9101568854     0.2124264493
| 13>  C       -0.6091887962    -0.7652202287     0.9524584872
| 14>  H        1.3286802564     1.4654339636     1.3016381510
| 15>  H        1.2694851189     1.8169518652    -0.4361453266
| 16>  H       -0.1335202823     2.1531057105     0.5953633283
| 17>  H        0.1658294221    -2.0596994844    -2.9659894576
| 18>  H        0.9651369083    -3.2188572215    -1.9075156521
| 19>  H       -2.7659179396    -5.0758976058    -2.4906857291
| 20>  H       -1.3472072360    -2.8200172277     0.4158732694
| 21>  H       -0.9901652892    -0.5570954681     1.9395782285
| 22> *
| 23>
| 24>                          ****END OF INPUT****

CARTESIAN COORDINATES (ANGSTROEM)
---------------------------------
  C      0.688091    1.451653    0.412980
  C      0.178373    0.073695    0.128057
  N      0.444749   -0.518908   -1.036121
  N     -0.169928   -1.720238   -0.969344
  C      0.031361   -2.661028   -2.061922
  C     -1.076319   -3.594722   -2.222059
  C     -1.969769   -4.384925   -2.360254
  C     -0.806215   -1.910157    0.212426
  C     -0.609189   -0.765220    0.952458
  H      1.328680    1.465434    1.301638
  H      1.269485    1.816952   -0.436145
  H     -0.133520    2.153106    0.595363
  H      0.165829   -2.059699   -2.965989
  H      0.965137   -3.218857   -1.907516
  H     -2.765918   -5.075898   -2.490686
  H     -1.347207   -2.820017    0.415873
  H     -0.990165   -0.557095    1.939578

 Total Charge           Charge          ....    0
 Multiplicity           Mult            ....    1
 Number of Electrons    NEL             ....   64
 Basis Dimension        Dim             ....  327

ORBITAL ENERGIES
----------------

  NO   OCC          E(Eh)            E(eV)
   0   2.0000     -15.635719      -425.4695
   1   2.0000     -15.574770      -423.8110
   2   2.0000     -11.306328      -307.6608
   3   2.0000     -11.271019      -306.7000
   4   2.0000     -11.255270      -306.2715
   5   2.0000     -11.250655      -306.1459
   6   2.0000     -11.241409      -305.8943
   7   2.0000     -11.219988      -305.3114
   8   2.0000     -11.212405      -305.1051
   9   2.0000      -1.374997       -37.4156
  10   2.0000      -1.144266       -31.1371
  11   2.0000      -1.061750       -28.8917
  12   2.0000      -1.046999       -28.4903
  13   2.0000      -0.987894       -26.8820
  14   2.0000      -0.923289       -25.1240
  15   2.0000      -0.808708       -22.0061
  16   2.0000      -0.755854       -20.5678
  17   2.0000      -0.737522       -20.0690
  18   2.0000      -0.707998       -19.2656
  19   2.0000      -0.670811       -18.2537
  20   2.0000      -0.638358       -17.3706
  21   2.0000      -0.603471       -16.4213
  22   2.0000      -0.586764       -15.9667
  23   2.0000      -0.577383       -15.7114
  24   2.0000      -0.542470       -14.7614
  25   2.0000      -0.540570       -14.7097
  26   2.0000      -0.523101       -14.2343
  27   2.0000      -0.452534       -12.3141
  28   2.0000      -0.413755       -11.2588
  29   2.0000      -0.405825       -11.0431
  30   2.0000      -0.344178        -9.3655
  31   2.0000      -0.339384        -9.2351
  32   0.0000       0.138441         3.7672
  33   0.0000       0.152257         4.1431
  34   0.0000       0.154157         4.1948
  35   0.0000       0.158561         4.3147
  36   0.0000       0.164762         4.4834

MULLIKEN ATOMIC CHARGES
-----------------------
   0 C :   -0.436207
   1 C :    0.086711
   2 N :   -0.278428
   3 N :    0.141554
   4 C :   -0.274452
   5 C :   -0.057161
   6 C :   -0.108793
   7 C :   -0.118656
   8 C :   -0.215061
   9 H :    0.137926
  10 H :    0.149069
  11 H :    0.138133
  12 H :    0.180999
  13 H :    0.158815
  14 H :    0.199153
  15 H :    0.159046
  16 H :    0.137352
Sum of atomic charges:    0.0000000

LOEWDIN ATOMIC CHARGES
----------------------
   0 C :   -0.277865
   1 C :   -0.299390
   2 N :    0.064233
   3 N :    0.197232
   4 C :   -0.227418
   5 C :   -0.108130
   6 C :   -0.080345
   7 C :   -0.218451
   8 C :   -0.183278
   9 H :    0.130128
  10 H :    0.134516
  11 H :    0.130206
  12 H :    0.165167
  13 H :    0.157877
  14 H :    0.130195
  15 H :    0.143395
  16 H :    0.141928

  Mayer bond orders larger than 0.1
B(  0-C ,  1-C ) :   0.8710 B(  0-C ,  9-H ) :   0.9341 B(  0-C , 10-H ) :   0.9529
B(  0-C , 11-H ) :   0.9338 B(  1-C ,  2-N ) :   1.5210 B(  1-C ,  8-C ) :   1.2819
B(  2-N ,  3-N ) :   1.0009 B(  3-N ,  4-C ) :   0.8825 B(  3-N ,  7-C ) :   1.2087
B(  4-C ,  5-C ) :   1.0302 B(  4-C , 12-H ) :   0.9185 B(  4-C , 13-H ) :   0.9344
B(  5-C ,  6-C ) :   2.6274 B(  6-C , 14-H ) :   0.9000 B(  7-C ,  8-C ) :   1.4352
B(  7-C , 15-H ) :   0.9122 B(  8-C , 16-H ) :   0.9195

MP2 TOTAL ENERGY:     -380.169794983 Eh
FINAL SINGLE POINT ENERGY      -380.169794982858

DIPOLE MOMENT
-------------
                                X             Y             Z
Electronic contribution:     -1.41855      -4.18552      -2.25316
Nuclear contribution   :      1.11891       3.54868       2.35182
                        -----------------------------------------
Total Dipole Moment    :     -0.29964      -0.63685       0.09866
                        -----------------------------------------
Magnitude (a.u.)       :      0.71070
Magnitude (Debye)      :      1.80645

                             ****ORCA TERMINATED NORMALLY****
TOTAL RUN TIME: 0 days 0 hours 16 minutes 31 seconds 226 msec
