                         Program Version 3.0.3 - RELEASE   -
|  1> ! RI-MP2 RIJK def2-TZVP def2-TZVP/C def2-TZVP/JK TIGHTSCF
|  2> % maxcore 2000
|  3> % mp2 density relaxed end
|  4> *xyz 0 1
|  5>  C        0.0391055209     1.4242611663    -0.0564011471
|  6>  C       -0.0763616064    -0.0749975558     0.0393264302
|  7>  O        0.9693435641    -0.6758456855    -0.7330076989
|  8>  C        0.6655705208    -1.8203593185    -1.3966041121
|  9>  N       -0.2973362039    -2.6123027889    -1.1797104391
| 10>  C       -1.1454308314    -2.2355831466    -0.0562127909
| 11>  C       -0.4174633927    -2.1935770949     1.3367984498
| 12>  C       -0.5455767039    -0.6713595594     1.3390320963
| 13>  C       -1.4136881358    -0.7208362254     0.0610593928
| 14>  H        1.0203840177     1.7545640571     0.2980223779
| 15>  H       -0.0794626617     1.7561926658    -1.0922159766
| 16>  H       -0.7285568244     1.9085757814     0.5527890884
| 17>  H        1.3949352287    -2.0084838605    -2.1817089283
| 18>  H       -2.0423810930    -2.8536705309    -0.0567436948
| 19>  H       -1.0197903494    -2.6587963253     2.1207040758
| 20>  H        0.5918996840    -2.6125916922     1.3636703454
| 21>  H       -0.6651410274    -0.0457312782     2.2162673352
| 22>  H       -2.3305511562    -0.2093893885    -0.2044320940
| 23> *
| 24>
| 25>                          ****END OF INPUT****

CARTESIAN COORDINATES (ANGSTROEM)
---------------------------------
  C      0.039106    1.424261   -0.056401
  C     -0.076362   -0.074998    0.039326
  O      0.969344   -0.675846   -0.733008
  C      0.665571   -1.820359   -1.396604
  N     -0.297336   -2.612303   -1.179710
  C     -1.145431   -2.235583   -0.056213
  C     -0.417463   -2.193577    1.336798
  C     -0.545577   -0.671360    1.339032
  C     -1.413688   -0.720836    0.061059
  H      1.020384    1.754564    0.298022
  H     -0.079463    1.756193   -1.092216
  H     -0.728557    1.908576    0.552789
  H      1.394935   -2.008484   -2.181709
  H     -2.042381   -2.853671   -0.056744
  H     -1.019790   -2.658796    2.120704
  H      0.591900   -2.612592    1.363670
  H     -0.665141   -0.045731    2.216267
  H     -2.330551   -0.209389   -0.204432

 Total Charge           Charge          ....    0
 Multiplicity           Mult            ....    1
 Number of Electrons    NEL             ....   66
 Basis Dimension        Dim             ....  333

ORBITAL ENERGIES
----------------

  NO   OCC          E(Eh)            E(eV)
   0   2.0000     -20.594334      -560.4003
   1   2.0000     -15.539856      -422.8610
   2   2.0000     -11.327840      -308.2462
   3   2.0000     -11.304431      -307.6092
   4   2.0000     -11.264473      -306.5219
   5   2.0000     -11.242742      -305.9306
   6   2.0000     -11.238905      -305.8262
   7   2.0000     -11.231707      -305.6303
   8   2.0000     -11.229809      -305.5786
   9   2.0000      -1.429217       -38.8910
  10   2.0000      -1.225169       -33.3385
  11   2.0000      -1.186220       -32.2787
  12   2.0000      -1.020621       -27.7725
  13   2.0000      -0.941817       -25.6282
  14   2.0000      -0.913462       -24.8566
  15   2.0000      -0.860290       -23.4097
  16   2.0000      -0.765880       -20.8407
  17   2.0000      -0.717529       -19.5249
  18   2.0000      -0.697824       -18.9888
  19   2.0000      -0.688176       -18.7262
  20   2.0000      -0.643702       -17.5160
  21   2.0000      -0.614778       -16.7289
  22   2.0000      -0.587073       -15.9751
  23   2.0000      -0.566869       -15.4253
  24   2.0000      -0.559990       -15.2381
  25   2.0000      -0.551313       -15.0020
  26   2.0000      -0.519216       -14.1286
  27   2.0000      -0.510826       -13.9003
  28   2.0000      -0.504208       -13.7202
  29   2.0000      -0.425277       -11.5724
  30   2.0000      -0.413090       -11.2407
  31   2.0000      -0.384333       -10.4582
  32   2.0000      -0.369181       -10.0459
  33   0.0000       0.139336         3.7915
  34   0.0000       0.155245         4.2244
  35   0.0000       0.162743         4.4285
  36   0.0000       0.173345         4.7170
  37   0.0000       0.181658         4.9432

MULLIKEN ATOMIC CHARGES
-----------------------
   0 C :   -0.443717
   1 C :    0.264779
   2 O :   -0.266213
   3 C :    0.080093
   4 N :   -0.276880
   5 C :    0.062119
   6 C :   -0.210832
   7 C :   -0.189621
   8 C :   -0.226486
   9 H :    0.146463
  10 H :    0.140988
  11 H :    0.137142
  12 H :    0.132006
  13 H :    0.125148
  14 H :    0.127145
  15 H :    0.121981
  16 H :    0.135041
  17 H :    0.140844
Sum of atomic charges:    0.0000000

LOEWDIN ATOMIC CHARGES
----------------------
   0 C :   -0.254774
   1 C :   -0.296429
   2 O :    0.271432
   3 C :   -0.346860
   4 N :    0.085058
   5 C :   -0.229410
   6 C :   -0.183986
   7 C :   -0.144758
   8 C :   -0.125255
   9 H :    0.133125
  10 H :    0.131409
  11 H :    0.134960
  12 H :    0.132009
  13 H :    0.142813
  14 H :    0.138851
  15 H :    0.133689
  16 H :    0.138504
  17 H :    0.139624

  Mayer bond orders larger than 0.1
B(  0-C ,  1-C ) :   0.8933 B(  0-C ,  9-H ) :   0.9397 B(  0-C , 10-H ) :   0.9355
B(  0-C , 11-H ) :   0.9373 B(  1-C ,  2-O ) :   0.8706 B(  1-C ,  7-C ) :   0.8715
B(  1-C ,  8-C ) :   0.9168 B(  2-O ,  3-C ) :   1.0764 B(  3-C ,  4-N ) :   1.8463
B(  3-C , 12-H ) :   0.9285 B(  4-N ,  5-C ) :   0.9520 B(  5-C ,  6-C ) :   0.9418
B(  5-C ,  8-C ) :   0.8964 B(  5-C , 13-H ) :   0.9404 B(  6-C ,  7-C ) :   0.9467
B(  6-C , 14-H ) :   0.9267 B(  6-C , 15-H ) :   0.9116 B(  7-C ,  8-C ) :   0.7878
B(  7-C , 16-H ) :   0.9177 B(  8-C , 17-H ) :   0.9141

MP2 TOTAL ENERGY:     -401.238176120 Eh
FINAL SINGLE POINT ENERGY      -401.238176119674

DIPOLE MOMENT
-------------
                                X             Y             Z
Electronic contribution:      1.45522      -3.40148      -2.93852
Nuclear contribution   :     -1.73095       4.10976       3.49932
                        -----------------------------------------
Total Dipole Moment    :     -0.27573       0.70827       0.56081
                        -----------------------------------------
Magnitude (a.u.)       :      0.94455
Magnitude (Debye)      :      2.40086

                             ****ORCA TERMINATED NORMALLY****
TOTAL RUN TIME: 0 days 0 hours 18 minutes 55 seconds 392 msec
