                         Program Version 3.0.3 - RELEASE   -
|  1> ! RI-MP2 RIJK def2-TZVP def2-TZVP/C def2-TZVP/JK TIGHTSCF
|  2> % maxcore 2000
|  3> % mp2 density relaxed end
|  4> *xyz 0 1
|  5>  C        0.0179764047     1.4960318044    -0.0063502670
|  6>  C       -0.0153489687    -0.0081219004     0.0258787678
|  7>  C       -1.2094966857    -0.7096309130    -0.0187982907
|  8>  C       -1.1218213753    -2.1131087836     0.0039823393
|  9>  N       -2.2420433492    -2.9038026937    -0.0038722154
| 10>  N        0.0508163309    -2.7464440481     0.0702557493
| 11>  C        1.1371484078    -1.9612659113     0.1289443201
| 12>  N        2.3394471702    -2.6033464463     0.2586932574
| 13>  H        2.3540027942    -3.5801875844     0.0182643039
| 14>  H        3.1565932169    -2.0574932036     0.0421963481
| 15>  N        1.1749618730    -0.6234577604     0.0995310384
| 16>  H        0.6199127750     1.8404083330    -0.8533045657
| 17>  H       -0.9837051430     1.9248906021    -0.0850783298
| 18>  H        0.4972475435     1.8798998900     0.8999845491
| 19>  H       -2.1656536487    -0.2036084277    -0.0722598143
| 20>  H       -3.0952989301    -2.5130983280    -0.3671658743
| 21>  H       -2.0787628457    -3.8770400789    -0.2094826464
| 22> *
| 23>
| 24>                          ****END OF INPUT****

CARTESIAN COORDINATES (ANGSTROEM)
---------------------------------
  C      0.017976    1.496032   -0.006350
  C     -0.015349   -0.008122    0.025879
  C     -1.209497   -0.709631   -0.018798
  C     -1.121821   -2.113109    0.003982
  N     -2.242043   -2.903803   -0.003872
  N      0.050816   -2.746444    0.070256
  C      1.137148   -1.961266    0.128944
  N      2.339447   -2.603346    0.258693
  H      2.354003   -3.580188    0.018264
  H      3.156593   -2.057493    0.042196
  N      1.174962   -0.623458    0.099531
  H      0.619913    1.840408   -0.853305
  H     -0.983705    1.924891   -0.085078
  H      0.497248    1.879900    0.899985
  H     -2.165654   -0.203608   -0.072260
  H     -3.095299   -2.513098   -0.367166
  H     -2.078763   -3.877040   -0.209483

 Total Charge           Charge          ....    0
 Multiplicity           Mult            ....    1
 Number of Electrons    NEL             ....   66
 Basis Dimension        Dim             ....  327

ORBITAL ENERGIES
----------------

  NO   OCC          E(Eh)            E(eV)
   0   2.0000     -15.575354      -423.8269
   1   2.0000     -15.561176      -423.4411
   2   2.0000     -15.535382      -422.7392
   3   2.0000     -15.528328      -422.5473
   4   2.0000     -11.338057      -308.5242
   5   2.0000     -11.326054      -308.1976
   6   2.0000     -11.288108      -307.1650
   7   2.0000     -11.222774      -305.3872
   8   2.0000     -11.208181      -304.9901
   9   2.0000      -1.319101       -35.8946
  10   2.0000      -1.244807       -33.8729
  11   2.0000      -1.188260       -32.3342
  12   2.0000      -1.148739       -31.2588
  13   2.0000      -1.038124       -28.2488
  14   2.0000      -0.968645       -26.3582
  15   2.0000      -0.858910       -23.3721
  16   2.0000      -0.830771       -22.6064
  17   2.0000      -0.744175       -20.2500
  18   2.0000      -0.717325       -19.5194
  19   2.0000      -0.670269       -18.2389
  20   2.0000      -0.643960       -17.5230
  21   2.0000      -0.630814       -17.1653
  22   2.0000      -0.617907       -16.8141
  23   2.0000      -0.604011       -16.4360
  24   2.0000      -0.561698       -15.2846
  25   2.0000      -0.545240       -14.8367
  26   2.0000      -0.538055       -14.6412
  27   2.0000      -0.508717       -13.8429
  28   2.0000      -0.465517       -12.6674
  29   2.0000      -0.429017       -11.6741
  30   2.0000      -0.396611       -10.7923
  31   2.0000      -0.373784       -10.1712
  32   2.0000      -0.314849        -8.5675
  33   0.0000       0.130781         3.5587
  34   0.0000       0.135357         3.6833
  35   0.0000       0.149569         4.0700
  36   0.0000       0.158920         4.3244
  37   0.0000       0.167489         4.5576

MULLIKEN ATOMIC CHARGES
-----------------------
   0 C :   -0.424952
   1 C :    0.172833
   2 C :   -0.306203
   3 C :    0.309052
   4 N :   -0.494480
   5 N :   -0.334618
   6 C :    0.321033
   7 N :   -0.485503
   8 H :    0.255875
   9 H :    0.259480
  10 N :   -0.317111
  11 H :    0.143141
  12 H :    0.126309
  13 H :    0.145570
  14 H :    0.120339
  15 H :    0.251671
  16 H :    0.257563
Sum of atomic charges:    0.0000000

LOEWDIN ATOMIC CHARGES
----------------------
   0 C :   -0.263787
   1 C :   -0.250441
   2 C :   -0.152765
   3 C :   -0.326999
   4 N :   -0.030057
   5 N :    0.121222
   6 C :   -0.415112
   7 N :   -0.033024
   8 H :    0.169765
   9 H :    0.171443
  10 N :    0.125575
  11 H :    0.134769
  12 H :    0.124807
  13 H :    0.135667
  14 H :    0.146667
  15 H :    0.169294
  16 H :    0.172977

  Mayer bond orders larger than 0.1
B(  0-C ,  1-C ) :   0.8826 B(  0-C , 11-H ) :   0.9302 B(  0-C , 12-H ) :   0.9544
B(  0-C , 13-H ) :   0.9288 B(  1-C ,  2-C ) :   1.4486 B(  1-C , 10-N ) :   1.3563
B(  2-C ,  3-C ) :   1.2565 B(  2-C , 14-H ) :   0.8944 B(  3-C ,  4-N ) :   1.1131
B(  3-C ,  5-N ) :   1.4223 B(  4-N , 15-H ) :   0.8759 B(  4-N , 16-H ) :   0.8620
B(  5-N ,  6-C ) :   1.3782 B(  6-C ,  7-N ) :   1.1373 B(  6-C , 10-N ) :   1.4116
B(  7-N ,  8-H ) :   0.8679 B(  7-N ,  9-H ) :   0.8665

MP2 TOTAL ENERGY:     -413.566769279 Eh
FINAL SINGLE POINT ENERGY      -413.566769279442

DIPOLE MOMENT
-------------
                                X             Y             Z
Electronic contribution:      1.09259      -4.31888       0.38274
Nuclear contribution   :     -1.73592       4.11424      -1.00540
                        -----------------------------------------
Total Dipole Moment    :     -0.64332      -0.20464      -0.62266
                        -----------------------------------------
Magnitude (a.u.)       :      0.91839
Magnitude (Debye)      :      2.33437

                             ****ORCA TERMINATED NORMALLY****
TOTAL RUN TIME: 0 days 0 hours 16 minutes 14 seconds 388 msec
