                         Program Version 3.0.3 - RELEASE   -
|  1> ! RI-MP2 RIJK def2-TZVP def2-TZVP/C def2-TZVP/JK TIGHTSCF
|  2> % maxcore 2000
|  3> % mp2 density relaxed end
|  4> *xyz 0 1
|  5>  C       -0.4727999903     1.3329027932    -0.1149625566
|  6>  C        0.0960585345    -0.0768905887    -0.0585242705
|  7>  C        1.4588318665    -0.3535635631    -0.7240777535
|  8>  O        1.9706072135    -0.9880925388     0.4622402946
|  9>  C        0.7859367387    -0.6209049133     1.2365715615
| 10>  C        1.1556132667     0.4154452863     2.2933718879
| 11>  C        0.1266367563    -1.8689538166     1.8259146771
| 12>  C        0.9862168424    -2.6269990352     2.8430865289
| 13>  O        0.3780460772    -3.8419746692     3.2587697519
| 14>  H        0.2638483045     2.0877748268     0.1754000626
| 15>  H       -0.8011202764     1.5697425513    -1.1329772550
| 16>  H       -1.3425207745     1.4403166304     0.5420862537
| 17>  H       -0.6639595278    -0.7860556211    -0.4004462774
| 18>  H        1.4630498352    -1.0274922626    -1.5888855565
| 19>  H        2.0289830545     0.5506608217    -0.9822898679
| 20>  H        1.6141118495     1.2959495334     1.8371040909
| 21>  H        0.2755841913     0.7377153699     2.8602943503
| 22>  H        1.8807798734    -0.0035884898     2.9963244860
| 23>  H       -0.8312282528    -1.5967751556     2.2873852469
| 24>  H       -0.1007693502    -2.5507499490     0.9956212076
| 25>  H        1.9863720873    -2.7985182356     2.4195461068
| 26>  H        1.1127885140    -2.0421482965     3.7588837351
| 27>  H        0.3286511165    -4.4202741877     2.4909722056
| 28> *
| 29>
| 30>                          ****END OF INPUT****

CARTESIAN COORDINATES (ANGSTROEM)
---------------------------------
  C     -0.472800    1.332903   -0.114963
  C      0.096059   -0.076891   -0.058524
  C      1.458832   -0.353564   -0.724078
  O      1.970607   -0.988093    0.462240
  C      0.785937   -0.620905    1.236572
  C      1.155613    0.415445    2.293372
  C      0.126637   -1.868954    1.825915
  C      0.986217   -2.626999    2.843087
  O      0.378046   -3.841975    3.258770
  H      0.263848    2.087775    0.175400
  H     -0.801120    1.569743   -1.132977
  H     -1.342521    1.440317    0.542086
  H     -0.663960   -0.786056   -0.400446
  H      1.463050   -1.027492   -1.588886
  H      2.028983    0.550661   -0.982290
  H      1.614112    1.295950    1.837104
  H      0.275584    0.737715    2.860294
  H      1.880780   -0.003588    2.996324
  H     -0.831228   -1.596775    2.287385
  H     -0.100769   -2.550750    0.995621
  H      1.986372   -2.798518    2.419546
  H      1.112789   -2.042148    3.758884
  H      0.328651   -4.420274    2.490972

 Total Charge           Charge          ....    0
 Multiplicity           Mult            ....    1
 Number of Electrons    NEL             ....   72
 Basis Dimension        Dim             ....  363

ORBITAL ENERGIES
----------------

  NO   OCC          E(Eh)            E(eV)
   0   2.0000     -20.550227      -559.2001
   1   2.0000     -20.542778      -558.9974
   2   2.0000     -11.289829      -307.2119
   3   2.0000     -11.275195      -306.8136
   4   2.0000     -11.268532      -306.6323
   5   2.0000     -11.235846      -305.7429
   6   2.0000     -11.225000      -305.4478
   7   2.0000     -11.222089      -305.3686
   8   2.0000     -11.218188      -305.2624
   9   2.0000      -1.374801       -37.4102
  10   2.0000      -1.353538       -36.8316
  11   2.0000      -1.073723       -29.2175
  12   2.0000      -1.039004       -28.2727
  13   2.0000      -0.970949       -26.4209
  14   2.0000      -0.916200       -24.9311
  15   2.0000      -0.886588       -24.1253
  16   2.0000      -0.822155       -22.3720
  17   2.0000      -0.721023       -19.6200
  18   2.0000      -0.689911       -18.7734
  19   2.0000      -0.674065       -18.3422
  20   2.0000      -0.644785       -17.5455
  21   2.0000      -0.629145       -17.1199
  22   2.0000      -0.611754       -16.6467
  23   2.0000      -0.587194       -15.9784
  24   2.0000      -0.575173       -15.6513
  25   2.0000      -0.568302       -15.4643
  26   2.0000      -0.551754       -15.0140
  27   2.0000      -0.538546       -14.6546
  28   2.0000      -0.525363       -14.2959
  29   2.0000      -0.512742       -13.9524
  30   2.0000      -0.497427       -13.5357
  31   2.0000      -0.487201       -13.2574
  32   2.0000      -0.456889       -12.4326
  33   2.0000      -0.443174       -12.0594
  34   2.0000      -0.416822       -11.3423
  35   2.0000      -0.408047       -11.1035
  36   0.0000       0.126727         3.4484
  37   0.0000       0.146426         3.9845
  38   0.0000       0.156486         4.2582
  39   0.0000       0.170012         4.6263
  40   0.0000       0.174880         4.7587

MULLIKEN ATOMIC CHARGES
-----------------------
   0 C :   -0.410736
   1 C :   -0.105007
   2 C :   -0.032030
   3 O :   -0.345769
   4 C :    0.233016
   5 C :   -0.445127
   6 C :   -0.231033
   7 C :   -0.071486
   8 O :   -0.471108
   9 H :    0.124852
  10 H :    0.140485
  11 H :    0.133657
  12 H :    0.105543
  13 H :    0.099242
  14 H :    0.086588
  15 H :    0.133314
  16 H :    0.131994
  17 H :    0.149322
  18 H :    0.117157
  19 H :    0.098473
  20 H :    0.131802
  21 H :    0.114583
  22 H :    0.312268
Sum of atomic charges:   -0.0000000

LOEWDIN ATOMIC CHARGES
----------------------
   0 C :   -0.297913
   1 C :   -0.225819
   2 C :   -0.256705
   3 O :    0.147337
   4 C :   -0.314995
   5 C :   -0.266207
   6 C :   -0.245026
   7 C :   -0.343023
   8 O :   -0.053836
   9 H :    0.123299
  10 H :    0.127484
  11 H :    0.126482
  12 H :    0.149915
  13 H :    0.115568
  14 H :    0.117783
  15 H :    0.127740
  16 H :    0.130366
  17 H :    0.131505
  18 H :    0.144891
  19 H :    0.140328
  20 H :    0.122394
  21 H :    0.126676
  22 H :    0.171756

  Mayer bond orders larger than 0.1
B(  0-C ,  1-C ) :   0.9281 B(  0-C ,  9-H ) :   0.9333 B(  0-C , 10-H ) :   0.9356
B(  0-C , 11-H ) :   0.9375 B(  1-C ,  2-C ) :   0.9777 B(  1-C ,  4-C ) :   0.8567
B(  1-C , 12-H ) :   0.9292 B(  2-C ,  3-O ) :   0.9623 B(  2-C , 13-H ) :   0.9161
B(  2-C , 14-H ) :   0.9043 B(  3-O ,  4-C ) :   0.8974 B(  4-C ,  5-C ) :   0.9053
B(  4-C ,  6-C ) :   0.8895 B(  5-C , 15-H ) :   0.9388 B(  5-C , 16-H ) :   0.9280
B(  5-C , 17-H ) :   0.9352 B(  6-C ,  7-C ) :   0.9132 B(  6-C , 18-H ) :   0.9216
B(  6-C , 19-H ) :   0.9267 B(  7-C ,  8-O ) :   0.9238 B(  7-C , 20-H ) :   0.9393
B(  7-C , 21-H ) :   0.9279 B(  8-O , 22-H ) :   0.8490

MP2 TOTAL ENERGY:     -424.710566761 Eh
FINAL SINGLE POINT ENERGY      -424.710566761005

DIPOLE MOMENT
-------------
                                X             Y             Z
Electronic contribution:      2.30796      -5.50471       0.49462
Nuclear contribution   :     -2.75545       6.04813      -1.23565
                        -----------------------------------------
Total Dipole Moment    :     -0.44749       0.54342      -0.74103
                        -----------------------------------------
Magnitude (a.u.)       :      1.02210
Magnitude (Debye)      :      2.59796

                             ****ORCA TERMINATED NORMALLY****
TOTAL RUN TIME: 0 days 0 hours 19 minutes 51 seconds 337 msec
