                         Program Version 3.0.3 - RELEASE   -
|  1> ! RI-MP2 RIJK def2-TZVP def2-TZVP/C def2-TZVP/JK TIGHTSCF
|  2> % maxcore 2000
|  3> % mp2 density relaxed end
|  4> *xyz 0 1
|  5>  C        0.1407490515     1.5315929163     0.2199927548
|  6>  C       -0.0083359931     0.0344883961    -0.0839077273
|  7>  C       -1.4295104894    -0.4297962340    -0.0461007237
|  8>  C       -2.4438423203    -0.7825316062     0.9715724047
|  9>  O       -3.5168676809    -0.0441806902     0.3833015286
| 10>  C       -2.7465691986    -0.0658214183    -0.8490115525
| 11>  C       -2.7488403261    -1.5602929621    -1.2602513085
| 12>  O       -2.9882888299    -2.1441764698    -2.2783863126
| 13>  C       -2.0233714101    -1.8938267749     0.0031588281
| 14>  H        1.1922309973     1.8303356604     0.1813610791
| 15>  H       -0.4080676116     2.1379267725    -0.5073433351
| 16>  H       -0.2460531206     1.7721712933     1.2147789627
| 17>  H        0.4189472850    -0.1915460828    -1.0688919099
| 18>  H        0.5690371054    -0.5544393755     0.6391647080
| 19>  H       -2.3999214380    -0.8906796384     2.0481527519
| 20>  H       -2.9420151829     0.7577488696    -1.5304120699
| 21>  H       -1.5247936175    -2.8048208559     0.3036168015
| 22> *
| 23>
| 24>                          ****END OF INPUT****

CARTESIAN COORDINATES (ANGSTROEM)
---------------------------------
  C      0.140749    1.531593    0.219993
  C     -0.008336    0.034488   -0.083908
  C     -1.429510   -0.429796   -0.046101
  C     -2.443842   -0.782532    0.971572
  O     -3.516868   -0.044181    0.383302
  C     -2.746569   -0.065821   -0.849012
  C     -2.748840   -1.560293   -1.260251
  O     -2.988289   -2.144176   -2.278386
  C     -2.023371   -1.893827    0.003159
  H      1.192231    1.830336    0.181361
  H     -0.408068    2.137927   -0.507343
  H     -0.246053    1.772171    1.214779
  H      0.418947   -0.191546   -1.068892
  H      0.569037   -0.554439    0.639165
  H     -2.399921   -0.890680    2.048153
  H     -2.942015    0.757749   -1.530412
  H     -1.524794   -2.804821    0.303617

 Total Charge           Charge          ....    0
 Multiplicity           Mult            ....    1
 Number of Electrons    NEL             ....   66
 Basis Dimension        Dim             ....  327

ORBITAL ENERGIES
----------------

  NO   OCC          E(Eh)            E(eV)
   0   2.0000     -20.579154      -559.9872
   1   2.0000     -20.547372      -559.1224
   2   2.0000     -11.342018      -308.6320
   3   2.0000     -11.320688      -308.0516
   4   2.0000     -11.316019      -307.9245
   5   2.0000     -11.281597      -306.9879
   6   2.0000     -11.263042      -306.4829
   7   2.0000     -11.256738      -306.3114
   8   2.0000     -11.233980      -305.6922
   9   2.0000      -1.433231       -39.0002
  10   2.0000      -1.389208       -37.8023
  11   2.0000      -1.179564       -32.0976
  12   2.0000      -1.058791       -28.8112
  13   2.0000      -0.980099       -26.6699
  14   2.0000      -0.907942       -24.7064
  15   2.0000      -0.863738       -23.5035
  16   2.0000      -0.765669       -20.8349
  17   2.0000      -0.756994       -20.5989
  18   2.0000      -0.699535       -19.0353
  19   2.0000      -0.660135       -17.9632
  20   2.0000      -0.653107       -17.7719
  21   2.0000      -0.625201       -17.0126
  22   2.0000      -0.614097       -16.7104
  23   2.0000      -0.605333       -16.4719
  24   2.0000      -0.569304       -15.4916
  25   2.0000      -0.549058       -14.9406
  26   2.0000      -0.537178       -14.6174
  27   2.0000      -0.526647       -14.3308
  28   2.0000      -0.518667       -14.1136
  29   2.0000      -0.470132       -12.7930
  30   2.0000      -0.435576       -11.8526
  31   2.0000      -0.402205       -10.9446
  32   2.0000      -0.386027       -10.5043
  33   0.0000       0.121350         3.3021
  34   0.0000       0.142201         3.8695
  35   0.0000       0.151529         4.1233
  36   0.0000       0.166761         4.5378
  37   0.0000       0.172804         4.7022

MULLIKEN ATOMIC CHARGES
-----------------------
   0 C :   -0.380445
   1 C :   -0.214418
   2 C :   -0.055521
   3 C :    0.011655
   4 O :   -0.307602
   5 C :    0.099358
   6 C :    0.141433
   7 O :   -0.269887
   8 C :   -0.134027
   9 H :    0.141117
  10 H :    0.130162
  11 H :    0.133072
  12 H :    0.133694
  13 H :    0.121499
  14 H :    0.149694
  15 H :    0.145055
  16 H :    0.155161
Sum of atomic charges:   -0.0000000

LOEWDIN ATOMIC CHARGES
----------------------
   0 C :   -0.302717
   1 C :   -0.257399
   2 C :   -0.116162
   3 C :   -0.207974
   4 O :    0.178397
   5 C :   -0.146965
   6 C :   -0.301880
   7 O :    0.151656
   8 C :   -0.093932
   9 H :    0.123888
  10 H :    0.124046
  11 H :    0.124988
  12 H :    0.149486
  13 H :    0.149440
  14 H :    0.142098
  15 H :    0.136572
  16 H :    0.146458

  Mayer bond orders larger than 0.1
B(  0-C ,  1-C ) :   0.9356 B(  0-C ,  9-H ) :   0.9384 B(  0-C , 10-H ) :   0.9367
B(  0-C , 11-H ) :   0.9350 B(  1-C ,  2-C ) :   0.8725 B(  1-C , 12-H ) :   0.9249
B(  1-C , 13-H ) :   0.9238 B(  2-C ,  3-C ) :   0.9370 B(  2-C ,  5-C ) :   0.8620
B(  2-C ,  8-C ) :   0.7117 B(  3-C ,  4-O ) :   0.9789 B(  3-C ,  8-C ) :   0.8421
B(  3-C , 14-H ) :   0.9159 B(  4-O ,  5-C ) :   0.8722 B(  5-C ,  6-C ) :   0.8655
B(  5-C , 15-H ) :   0.9025 B(  6-C ,  7-O ) :   2.0304 B(  6-C ,  8-C ) :   0.9393
B(  8-C , 16-H ) :   0.9071

MP2 TOTAL ENERGY:     -421.061499766 Eh
FINAL SINGLE POINT ENERGY      -421.061499765521

DIPOLE MOMENT
-------------
                                X             Y             Z
Electronic contribution:     -8.46551      -5.70663      -2.79777
Nuclear contribution   :      9.74613       6.20476       3.69675
                        -----------------------------------------
Total Dipole Moment    :      1.28062       0.49813       0.89898
                        -----------------------------------------
Magnitude (a.u.)       :      1.64204
Magnitude (Debye)      :      4.17373

                             ****ORCA TERMINATED NORMALLY****
TOTAL RUN TIME: 0 days 0 hours 15 minutes 54 seconds 543 msec
