                         Program Version 3.0.3 - RELEASE   -
|  1> ! RI-MP2 RIJK def2-TZVP def2-TZVP/C def2-TZVP/JK TIGHTSCF
|  2> % maxcore 2000
|  3> % mp2 density relaxed end
|  4> *xyz 0 1
|  5>  C        0.0338213138     1.6062425900     0.0847728167
|  6>  C        0.1139464674     0.0854054793     0.0595898655
|  7>  C        1.1476608316    -0.6414225548    -0.8060203052
|  8>  C        1.2731831098    -1.7625500059     0.1912818619
|  9>  C        2.4344289136    -0.8072785059     0.0282941552
| 10>  C        2.1688571778    -0.2097916695     1.3907759428
| 11>  C        3.0428259163    -0.4102358550     2.5892768952
| 12>  C        2.7290284885     0.9909332942     2.0890265847
| 13>  C        0.7259854947    -0.7192208295     1.2553419337
| 14>  H        1.0138020132     2.0607875909     0.2468254505
| 15>  H       -0.3587849205     1.9848394641    -0.8658724713
| 16>  H       -0.6377608694     1.9539602093     0.8784648532
| 17>  H       -0.8740998166    -0.3365038557    -0.1605589546
| 18>  H        1.1794901500    -0.7120215903    -1.8868986155
| 19>  H        1.2032436814    -2.8362636242     0.0993282259
| 20>  H        3.3903276954    -0.9991242192    -0.4433814300
| 21>  H        2.5836658082    -0.7317415286     3.5193105444
| 22>  H        4.0485910718    -0.7902469054     2.4382645783
| 23>  H        3.5254859863     1.5475407893     1.6043701992
| 24>  H        2.0632243755     1.6041899239     2.6880932421
| 25>  H        0.1307884212    -0.9429793370     2.1398397571
| 26> *
| 27>
| 28>                          ****END OF INPUT****

CARTESIAN COORDINATES (ANGSTROEM)
---------------------------------
  C      0.033821    1.606243    0.084773
  C      0.113946    0.085405    0.059590
  C      1.147661   -0.641423   -0.806020
  C      1.273183   -1.762550    0.191282
  C      2.434429   -0.807279    0.028294
  C      2.168857   -0.209792    1.390776
  C      3.042826   -0.410236    2.589277
  C      2.729028    0.990933    2.089027
  C      0.725985   -0.719221    1.255342
  H      1.013802    2.060788    0.246825
  H     -0.358785    1.984839   -0.865872
  H     -0.637761    1.953960    0.878465
  H     -0.874100   -0.336504   -0.160559
  H      1.179490   -0.712022   -1.886899
  H      1.203244   -2.836264    0.099328
  H      3.390328   -0.999124   -0.443381
  H      2.583666   -0.731742    3.519311
  H      4.048591   -0.790247    2.438265
  H      3.525486    1.547541    1.604370
  H      2.063224    1.604190    2.688093
  H      0.130788   -0.942979    2.139840

 Total Charge           Charge          ....    0
 Multiplicity           Mult            ....    1
 Number of Electrons    NEL             ....   66
 Basis Dimension        Dim             ....  351

ORBITAL ENERGIES
----------------

  NO   OCC          E(Eh)            E(eV)
   0   2.0000     -11.233989      -305.6924
   1   2.0000     -11.233368      -305.6755
   2   2.0000     -11.229955      -305.5826
   3   2.0000     -11.227896      -305.5266
   4   2.0000     -11.227168      -305.5068
   5   2.0000     -11.226580      -305.4908
   6   2.0000     -11.216429      -305.2145
   7   2.0000     -11.215422      -305.1871
   8   2.0000     -11.203892      -304.8734
   9   2.0000      -1.231490       -33.5106
  10   2.0000      -1.115467       -30.3534
  11   2.0000      -1.010270       -27.4908
  12   2.0000      -0.920632       -25.0517
  13   2.0000      -0.887125       -24.1399
  14   2.0000      -0.820123       -22.3167
  15   2.0000      -0.807881       -21.9835
  16   2.0000      -0.725283       -19.7359
  17   2.0000      -0.702534       -19.1169
  18   2.0000      -0.694109       -18.8877
  19   2.0000      -0.632095       -17.2002
  20   2.0000      -0.612081       -16.6556
  21   2.0000      -0.593895       -16.1607
  22   2.0000      -0.566657       -15.4195
  23   2.0000      -0.548370       -14.9219
  24   2.0000      -0.509277       -13.8581
  25   2.0000      -0.504247       -13.7213
  26   2.0000      -0.489567       -13.3218
  27   2.0000      -0.466576       -12.6962
  28   2.0000      -0.447017       -12.1639
  29   2.0000      -0.413609       -11.2549
  30   2.0000      -0.402735       -10.9590
  31   2.0000      -0.372086       -10.1250
  32   2.0000      -0.353579        -9.6214
  33   0.0000       0.140290         3.8175
  34   0.0000       0.160586         4.3698
  35   0.0000       0.161158         4.3853
  36   0.0000       0.174414         4.7460
  37   0.0000       0.189191         5.1481

MULLIKEN ATOMIC CHARGES
-----------------------
   0 C :   -0.440800
   1 C :   -0.001937
   2 C :   -0.167838
   3 C :   -0.223143
   4 C :   -0.108574
   5 C :   -0.022780
   6 C :   -0.306022
   7 C :   -0.276939
   8 C :    0.022085
   9 H :    0.145296
  10 H :    0.128370
  11 H :    0.124614
  12 H :    0.095072
  13 H :    0.125841
  14 H :    0.144218
  15 H :    0.131984
  16 H :    0.123261
  17 H :    0.122677
  18 H :    0.124564
  19 H :    0.128568
  20 H :    0.131483
Sum of atomic charges:    0.0000000

LOEWDIN ATOMIC CHARGES
----------------------
   0 C :   -0.295008
   1 C :   -0.215521
   2 C :   -0.143403
   3 C :   -0.110751
   4 C :   -0.121684
   5 C :   -0.204944
   6 C :   -0.201129
   7 C :   -0.215778
   8 C :   -0.097015
   9 H :    0.127773
  10 H :    0.123794
  11 H :    0.123615
  12 H :    0.155000
  13 H :    0.136930
  14 H :    0.131842
  15 H :    0.140166
  16 H :    0.132247
  17 H :    0.132872
  18 H :    0.133132
  19 H :    0.133340
  20 H :    0.134523

  Mayer bond orders larger than 0.1
B(  0-C ,  1-C ) :   0.8877 B(  0-C ,  9-H ) :   0.9425 B(  0-C , 10-H ) :   0.9375
B(  0-C , 11-H ) :   0.9357 B(  1-C ,  2-C ) :   0.9505 B(  1-C ,  8-C ) :   0.9252
B(  1-C , 12-H ) :   0.9327 B(  2-C ,  3-C ) :   0.8514 B(  2-C ,  4-C ) :   0.8124
B(  2-C , 13-H ) :   0.9320 B(  3-C ,  4-C ) :   0.8729 B(  3-C ,  8-C ) :   0.9375
B(  3-C , 14-H ) :   0.9102 B(  4-C ,  5-C ) :   0.8942 B(  4-C , 15-H ) :   0.9192
B(  5-C ,  6-C ) :   0.8811 B(  5-C ,  7-C ) :   0.8733 B(  5-C ,  8-C ) :   0.8259
B(  6-C ,  7-C ) :   0.9406 B(  6-C , 16-H ) :   0.9198 B(  6-C , 17-H ) :   0.9237
B(  7-C , 18-H ) :   0.9151 B(  7-C , 19-H ) :   0.9200 B(  8-C , 20-H ) :   0.9029

MP2 TOTAL ENERGY:     -349.235475751 Eh
FINAL SINGLE POINT ENERGY      -349.235475751472

DIPOLE MOMENT
-------------
                                X             Y             Z
Electronic contribution:      0.75935      -3.72127      -0.96611
Nuclear contribution   :     -0.80861       3.62226       0.91239
                        -----------------------------------------
Total Dipole Moment    :     -0.04926      -0.09901      -0.05372
                        -----------------------------------------
Magnitude (a.u.)       :      0.12294
Magnitude (Debye)      :      0.31250

                             ****ORCA TERMINATED NORMALLY****
TOTAL RUN TIME: 0 days 0 hours 20 minutes 10 seconds 950 msec
