                         Program Version 3.0.3 - RELEASE   -
|  1> ! RI-MP2 RIJK def2-TZVP def2-TZVP/C def2-TZVP/JK TIGHTSCF
|  2> % maxcore 2000
|  3> % mp2 density relaxed end
|  4> *xyz 0 1
|  5>  C       -0.2504556508     1.3484678889    -0.2419245108
|  6>  O       -0.2813843390    -0.0576191465    -0.2998183591
|  7>  C        0.9160862802    -0.5924530982    -0.8356397285
|  8>  C        0.8534361705    -2.0452249290    -0.8782679857
|  9>  C        0.8277325159    -3.2492644718    -0.9252612032
| 10>  C        0.7935016765    -4.6807112306    -0.9734315759
| 11>  C       -0.4090292131    -5.3937857291    -1.5748105262
| 12>  C        0.8970635548    -5.4037380356    -2.3089000586
| 13>  H        0.5688811633     1.7159154994     0.3971813761
| 14>  H       -0.1314404206     1.7990596229    -1.2407835101
| 15>  H       -1.2024179879     1.6762774690     0.1817021099
| 16>  H        1.0889012268    -0.1938122878    -1.8513410687
| 17>  H        1.7809314492    -0.2740460320    -0.2265905439
| 18>  H        1.2620083563    -5.1814283374    -0.1310176626
| 19>  H       -0.7377673425    -6.3035876898    -1.0855095686
| 20>  H       -1.2070708139    -4.7699359575    -1.9585514486
| 21>  H        0.9895298704    -4.7873064799    -3.1948903546
| 22>  H        1.4747774739    -6.3208810551    -2.3303223811
| 23> *
| 24>
| 25>                          ****END OF INPUT****

CARTESIAN COORDINATES (ANGSTROEM)
---------------------------------
  C     -0.250456    1.348468   -0.241925
  O     -0.281384   -0.057619   -0.299818
  C      0.916086   -0.592453   -0.835640
  C      0.853436   -2.045225   -0.878268
  C      0.827733   -3.249264   -0.925261
  C      0.793502   -4.680711   -0.973432
  C     -0.409029   -5.393786   -1.574811
  C      0.897064   -5.403738   -2.308900
  H      0.568881    1.715915    0.397181
  H     -0.131440    1.799060   -1.240784
  H     -1.202418    1.676277    0.181702
  H      1.088901   -0.193812   -1.851341
  H      1.780931   -0.274046   -0.226591
  H      1.262008   -5.181428   -0.131018
  H     -0.737767   -6.303588   -1.085510
  H     -1.207071   -4.769936   -1.958551
  H      0.989530   -4.787306   -3.194890
  H      1.474777   -6.320881   -2.330322

 Total Charge           Charge          ....    0
 Multiplicity           Mult            ....    1
 Number of Electrons    NEL             ....   60
 Basis Dimension        Dim             ....  308

ORBITAL ENERGIES
----------------

  NO   OCC          E(Eh)            E(eV)
   0   2.0000     -20.559961      -559.4650
   1   2.0000     -11.300253      -307.4955
   2   2.0000     -11.273034      -306.7549
   3   2.0000     -11.253643      -306.2272
   4   2.0000     -11.236322      -305.7559
   5   2.0000     -11.235480      -305.7329
   6   2.0000     -11.223423      -305.4049
   7   2.0000     -11.214839      -305.1713
   8   2.0000      -1.380157       -37.5560
   9   2.0000      -1.154757       -31.4225
  10   2.0000      -1.046064       -28.4648
  11   2.0000      -0.968094       -26.3432
  12   2.0000      -0.894798       -24.3487
  13   2.0000      -0.847621       -23.0649
  14   2.0000      -0.829127       -22.5617
  15   2.0000      -0.705821       -19.2064
  16   2.0000      -0.677986       -18.4489
  17   2.0000      -0.670626       -18.2487
  18   2.0000      -0.654680       -17.8148
  19   2.0000      -0.648416       -17.6443
  20   2.0000      -0.567279       -15.4365
  21   2.0000      -0.564830       -15.3698
  22   2.0000      -0.549595       -14.9552
  23   2.0000      -0.523835       -14.2543
  24   2.0000      -0.492722       -13.4077
  25   2.0000      -0.470645       -12.8069
  26   2.0000      -0.454673       -12.3723
  27   2.0000      -0.433296       -11.7906
  28   2.0000      -0.362947        -9.8763
  29   2.0000      -0.351205        -9.5568
  30   0.0000       0.139963         3.8086
  31   0.0000       0.151574         4.1245
  32   0.0000       0.170392         4.6366
  33   0.0000       0.173569         4.7231
  34   0.0000       0.180641         4.9155

MULLIKEN ATOMIC CHARGES
-----------------------
   0 C :   -0.213924
   1 O :   -0.283989
   2 C :   -0.211472
   3 C :    0.017839
   4 C :    0.093096
   5 C :   -0.229670
   6 C :   -0.232463
   7 C :   -0.234454
   8 H :    0.110691
   9 H :    0.110239
  10 H :    0.142499
  11 H :    0.121472
  12 H :    0.122238
  13 H :    0.137659
  14 H :    0.133722
  15 H :    0.143561
  16 H :    0.139708
  17 H :    0.133249
Sum of atomic charges:   -0.0000000

LOEWDIN ATOMIC CHARGES
----------------------
   0 C :   -0.362321
   1 O :    0.138618
   2 C :   -0.318088
   3 C :   -0.068120
   4 C :   -0.053638
   5 C :   -0.213580
   6 C :   -0.205657
   7 C :   -0.207880
   8 H :    0.101150
   9 H :    0.100994
  10 H :    0.115033
  11 H :    0.135406
  12 H :    0.136066
  13 H :    0.161119
  14 H :    0.132678
  15 H :    0.138573
  16 H :    0.137254
  17 H :    0.132392

  Mayer bond orders larger than 0.1
B(  0-C ,  1-O ) :   0.9186 B(  0-C ,  8-H ) :   0.9364 B(  0-C ,  9-H ) :   0.9363
B(  0-C , 10-H ) :   0.9386 B(  1-O ,  2-C ) :   1.0512 B(  2-C ,  3-C ) :   1.0075
B(  2-C , 11-H ) :   0.9349 B(  2-C , 12-H ) :   0.9374 B(  3-C ,  4-C ) :   2.6476
B(  3-C ,  5-C ) :  -0.1113 B(  4-C ,  5-C ) :   1.0893 B(  5-C ,  6-C ) :   0.8562
B(  5-C ,  7-C ) :   0.8610 B(  5-C , 13-H ) :   0.9345 B(  6-C ,  7-C ) :   0.9051
B(  6-C , 14-H ) :   0.9300 B(  6-C , 15-H ) :   0.9316 B(  7-C , 16-H ) :   0.9320
B(  7-C , 17-H ) :   0.9298

MP2 TOTAL ENERGY:     -347.124827177 Eh
FINAL SINGLE POINT ENERGY      -347.124827177028

DIPOLE MOMENT
-------------
                                X             Y             Z
Electronic contribution:      0.34691      -1.21762       1.19620
Nuclear contribution   :     -0.02571       1.29280      -1.41611
                        -----------------------------------------
Total Dipole Moment    :      0.32121       0.07518      -0.21991
                        -----------------------------------------
Magnitude (a.u.)       :      0.39647
Magnitude (Debye)      :      1.00774

                             ****ORCA TERMINATED NORMALLY****
TOTAL RUN TIME: 0 days 0 hours 10 minutes 18 seconds 369 msec
