                         Program Version 3.0.3 - RELEASE   -
|  1> ! RI-MP2 RIJK def2-TZVP def2-TZVP/C def2-TZVP/JK TIGHTSCF
|  2> % maxcore 2000
|  3> % mp2 density relaxed end
|  4> *xyz 0 1
|  5>  C       -0.0745906863     1.4437540292    -0.0516376752
|  6>  N        0.0666230374     0.0015111157     0.0890262293
|  7>  C        0.0675115396    -0.5429944088     1.3473994599
|  8>  O        0.0076094767     0.0998195916     2.3774774216
|  9>  C        0.0498496954    -0.7992824441    -1.1161539666
| 10>  C        0.9319938625    -2.1022588970    -1.2625589363
| 11>  C       -0.3341009495    -2.8461217371    -1.6949183215
| 12>  N       -1.2536616107    -2.7692446351    -0.5372572861
| 13>  C       -1.1851848164    -1.6402444948    -1.4939989422
| 14>  H        0.7310182520     1.8527243079    -0.6722855386
| 15>  H       -1.0354851680     1.7099042521    -0.5098158910
| 16>  H       -0.0250055455     1.8803273469     0.9453783486
| 17>  H        0.1263457172    -1.6407142789     1.3284726104
| 18>  H        0.2892305603    -0.1279971911    -1.9441680498
| 19>  H        1.6847254914    -1.9940432938    -2.0457240626
| 20>  H        1.4022371579    -2.4858986044    -0.3561706177
| 21>  H       -0.4222529427    -3.6355669164    -2.4294287767
| 22>  H       -2.0900389918    -3.3047891150    -0.7663356959
| 23>  H       -2.0701763296    -1.3091056271    -2.0238769194
| 24> *
| 25>
| 26>                          ****END OF INPUT****

CARTESIAN COORDINATES (ANGSTROEM)
---------------------------------
  C     -0.074591    1.443754   -0.051638
  N      0.066623    0.001511    0.089026
  C      0.067512   -0.542994    1.347399
  O      0.007609    0.099820    2.377477
  C      0.049850   -0.799282   -1.116154
  C      0.931994   -2.102259   -1.262559
  C     -0.334101   -2.846122   -1.694918
  N     -1.253662   -2.769245   -0.537257
  C     -1.185185   -1.640244   -1.493999
  H      0.731018    1.852724   -0.672286
  H     -1.035485    1.709904   -0.509816
  H     -0.025006    1.880327    0.945378
  H      0.126346   -1.640714    1.328473
  H      0.289231   -0.127997   -1.944168
  H      1.684725   -1.994043   -2.045724
  H      1.402237   -2.485899   -0.356171
  H     -0.422253   -3.635567   -2.429429
  H     -2.090039   -3.304789   -0.766336
  H     -2.070176   -1.309106   -2.023877

 Total Charge           Charge          ....    0
 Multiplicity           Mult            ....    1
 Number of Electrons    NEL             ....   68
 Basis Dimension        Dim             ....  339

ORBITAL ENERGIES
----------------

  NO   OCC          E(Eh)            E(eV)
   0   2.0000     -20.507481      -558.0369
   1   2.0000     -15.580652      -423.9711
   2   2.0000     -15.574712      -423.8095
   3   2.0000     -11.329703      -308.2969
   4   2.0000     -11.288312      -307.1706
   5   2.0000     -11.276733      -306.8555
   6   2.0000     -11.273584      -306.7698
   7   2.0000     -11.252890      -306.2067
   8   2.0000     -11.244779      -305.9860
   9   2.0000      -1.368279       -37.2328
  10   2.0000      -1.299636       -35.3649
  11   2.0000      -1.236099       -33.6360
  12   2.0000      -1.058031       -28.7905
  13   2.0000      -0.953786       -25.9538
  14   2.0000      -0.922862       -25.1124
  15   2.0000      -0.863998       -23.5106
  16   2.0000      -0.799595       -21.7581
  17   2.0000      -0.746295       -20.3077
  18   2.0000      -0.735114       -20.0035
  19   2.0000      -0.689679       -18.7671
  20   2.0000      -0.643627       -17.5140
  21   2.0000      -0.634313       -17.2605
  22   2.0000      -0.594126       -16.1670
  23   2.0000      -0.587379       -15.9834
  24   2.0000      -0.569125       -15.4867
  25   2.0000      -0.551645       -15.0110
  26   2.0000      -0.547073       -14.8866
  27   2.0000      -0.520596       -14.1661
  28   2.0000      -0.505201       -13.7472
  29   2.0000      -0.482057       -13.1174
  30   2.0000      -0.462315       -12.5802
  31   2.0000      -0.415555       -11.3078
  32   2.0000      -0.386678       -10.5221
  33   2.0000      -0.359659        -9.7868
  34   0.0000       0.127599         3.4721
  35   0.0000       0.142246         3.8707
  36   0.0000       0.152332         4.1452
  37   0.0000       0.168476         4.5845
  38   0.0000       0.176748         4.8096

MULLIKEN ATOMIC CHARGES
-----------------------
   0 C :   -0.345241
   1 N :   -0.099976
   2 C :    0.147976
   3 O :   -0.373721
   4 C :   -0.025402
   5 C :   -0.207331
   6 C :   -0.073796
   7 N :   -0.398262
   8 C :   -0.082992
   9 H :    0.134478
  10 H :    0.131383
  11 H :    0.183053
  12 H :    0.114937
  13 H :    0.122767
  14 H :    0.127400
  15 H :    0.134647
  16 H :    0.145529
  17 H :    0.219981
  18 H :    0.144572
Sum of atomic charges:   -0.0000000

LOEWDIN ATOMIC CHARGES
----------------------
   0 C :   -0.291932
   1 N :    0.157174
   2 C :   -0.402732
   3 O :    0.047561
   4 C :   -0.218473
   5 C :   -0.190783
   6 C :   -0.236045
   7 N :    0.004020
   8 C :   -0.219558
   9 H :    0.116284
  10 H :    0.115602
  11 H :    0.135592
  12 H :    0.121374
  13 H :    0.157068
  14 H :    0.135720
  15 H :    0.135801
  16 H :    0.130103
  17 H :    0.173942
  18 H :    0.129282

  Mayer bond orders larger than 0.1
B(  0-C ,  1-N ) :   0.8615 B(  0-C ,  9-H ) :   0.9355 B(  0-C , 10-H ) :   0.9317
B(  0-C , 11-H ) :   0.9193 B(  1-N ,  2-C ) :   1.1090 B(  1-N ,  4-C ) :   0.8946
B(  2-C ,  3-O ) :   1.8859 B(  2-C , 12-H ) :   0.9269 B(  4-C ,  5-C ) :   0.9809
B(  4-C ,  8-C ) :   0.9052 B(  4-C , 13-H ) :   0.9111 B(  5-C ,  6-C ) :   0.9522
B(  5-C , 14-H ) :   0.9290 B(  5-C , 15-H ) :   0.9097 B(  6-C ,  7-N ) :   0.9624
B(  6-C ,  8-C ) :   0.8830 B(  6-C , 16-H ) :   0.9211 B(  7-N ,  8-C ) :   0.8817
B(  7-N , 17-H ) :   0.8697 B(  8-C , 18-H ) :   0.9104

MP2 TOTAL ENERGY:     -418.467597817 Eh
FINAL SINGLE POINT ENERGY      -418.467597816526

DIPOLE MOMENT
-------------
                                X             Y             Z
Electronic contribution:     -0.70492      -1.20659       3.66026
Nuclear contribution   :      0.49572       0.75353      -5.82256
                        -----------------------------------------
Total Dipole Moment    :     -0.20920      -0.45306      -2.16230
                        -----------------------------------------
Magnitude (a.u.)       :      2.21914
Magnitude (Debye)      :      5.64059

                             ****ORCA TERMINATED NORMALLY****
TOTAL RUN TIME: 0 days 0 hours 19 minutes 26 seconds 216 msec
