                         Program Version 3.0.3 - RELEASE   -
|  1> ! RI-MP2 RIJK def2-TZVP def2-TZVP/C def2-TZVP/JK TIGHTSCF
|  2> % maxcore 2000
|  3> % mp2 density relaxed end
|  4> *xyz 0 1
|  5>  C       -0.0210792449     1.5013823092    -0.0151014649
|  6>  C        1.5097163971     1.8108436441    -0.0297635841
|  7>  C        2.0539423612     0.3852126819     0.0190512494
|  8>  C        1.1624052503    -0.4569257827    -0.9724240485
|  9>  C        1.4570881402    -1.8956620045    -0.5675655236
| 10>  C        1.4604325856    -1.8487029962     0.7673508339
| 11>  C        1.1674156644    -0.3850467138     1.0715834251
| 12>  C        0.0321449414    -0.0235077200     0.0383755959
| 13>  H       -0.5301084700     1.9300833706     0.8540288875
| 14>  H       -0.5344957879     1.8681234943    -0.9096302077
| 15>  H        1.8238176379     2.3447979697    -0.9322688484
| 16>  H        1.8281772597     2.4068975788     0.8313861987
| 17>  H        3.1364438392     0.2401869916     0.0215026298
| 18>  H        1.1001925861    -0.1992682703    -2.0318972013
| 19>  H        1.6190594465    -2.7286758765    -1.2369182882
| 20>  H        1.6258747050    -2.6326603351     1.4927613025
| 21>  H        1.1103382385    -0.0535899561     2.1106309801
| 22>  H       -0.9087913803    -0.5775937549     0.0601624037
| 23> *
| 24>
| 25>                          ****END OF INPUT****

CARTESIAN COORDINATES (ANGSTROEM)
---------------------------------
  C     -0.021079    1.501382   -0.015101
  C      1.509716    1.810844   -0.029764
  C      2.053942    0.385213    0.019051
  C      1.162405   -0.456926   -0.972424
  C      1.457088   -1.895662   -0.567566
  C      1.460433   -1.848703    0.767351
  C      1.167416   -0.385047    1.071583
  C      0.032145   -0.023508    0.038376
  H     -0.530108    1.930083    0.854029
  H     -0.534496    1.868123   -0.909630
  H      1.823818    2.344798   -0.932269
  H      1.828177    2.406898    0.831386
  H      3.136444    0.240187    0.021503
  H      1.100193   -0.199268   -2.031897
  H      1.619059   -2.728676   -1.236918
  H      1.625875   -2.632660    1.492761
  H      1.110338   -0.053590    2.110631
  H     -0.908791   -0.577594    0.060162

 Total Charge           Charge          ....    0
 Multiplicity           Mult            ....    1
 Number of Electrons    NEL             ....   58
 Basis Dimension        Dim             ....  308

ORBITAL ENERGIES
----------------

  NO   OCC          E(Eh)            E(eV)
   0   2.0000     -11.230508      -305.5976
   1   2.0000     -11.230252      -305.5907
   2   2.0000     -11.229480      -305.5697
   3   2.0000     -11.229230      -305.5629
   4   2.0000     -11.218381      -305.2677
   5   2.0000     -11.216671      -305.2211
   6   2.0000     -11.216513      -305.2168
   7   2.0000     -11.215978      -305.2023
   8   2.0000      -1.207650       -32.8618
   9   2.0000      -1.058384       -28.8001
  10   2.0000      -0.935186       -25.4477
  11   2.0000      -0.926097       -25.2004
  12   2.0000      -0.912315       -24.8254
  13   2.0000      -0.764422       -20.8010
  14   2.0000      -0.722854       -19.6699
  15   2.0000      -0.720385       -19.6027
  16   2.0000      -0.683892       -18.6097
  17   2.0000      -0.666172       -18.1275
  18   2.0000      -0.601880       -16.3780
  19   2.0000      -0.549660       -14.9570
  20   2.0000      -0.526583       -14.3290
  21   2.0000      -0.494884       -13.4665
  22   2.0000      -0.494153       -13.4466
  23   2.0000      -0.484345       -13.1797
  24   2.0000      -0.466917       -12.7055
  25   2.0000      -0.459120       -12.4933
  26   2.0000      -0.423775       -11.5315
  27   2.0000      -0.423510       -11.5243
  28   2.0000      -0.318158        -8.6575
  29   0.0000       0.143053         3.8927
  30   0.0000       0.149661         4.0725
  31   0.0000       0.167702         4.5634
  32   0.0000       0.172127         4.6838
  33   0.0000       0.177468         4.8291

MULLIKEN ATOMIC CHARGES
-----------------------
   0 C :   -0.245954
   1 C :   -0.245955
   2 C :   -0.038016
   3 C :   -0.086066
   4 C :   -0.218448
   5 C :   -0.218449
   6 C :   -0.086066
   7 C :   -0.038016
   8 H :    0.116414
   9 H :    0.116419
  10 H :    0.116414
  11 H :    0.116419
  12 H :    0.108066
  13 H :    0.117997
  14 H :    0.129588
  15 H :    0.129588
  16 H :    0.117997
  17 H :    0.108066
Sum of atomic charges:   -0.0000000

LOEWDIN ATOMIC CHARGES
----------------------
   0 C :   -0.230471
   1 C :   -0.230471
   2 C :   -0.156856
   3 C :   -0.147115
   4 C :   -0.138094
   5 C :   -0.138094
   6 C :   -0.147115
   7 C :   -0.156855
   8 H :    0.133959
   9 H :    0.133956
  10 H :    0.133959
  11 H :    0.133956
  12 H :    0.136939
  13 H :    0.134920
  14 H :    0.132761
  15 H :    0.132761
  16 H :    0.134920
  17 H :    0.136939

  Mayer bond orders larger than 0.1
B(  0-C ,  1-C ) :   0.9728 B(  0-C ,  7-C ) :   0.9318 B(  0-C ,  8-H ) :   0.9250
B(  0-C ,  9-H ) :   0.9250 B(  1-C ,  2-C ) :   0.9318 B(  1-C , 10-H ) :   0.9250
B(  1-C , 11-H ) :   0.9250 B(  2-C ,  3-C ) :   0.8844 B(  2-C ,  6-C ) :   0.8844
B(  2-C , 12-H ) :   0.9155 B(  3-C ,  4-C ) :   0.9297 B(  3-C ,  7-C ) :   0.8844
B(  3-C , 13-H ) :   0.9132 B(  4-C ,  5-C ) :   1.7601 B(  4-C , 14-H ) :   0.9347
B(  5-C ,  6-C ) :   0.9297 B(  5-C , 15-H ) :   0.9347 B(  6-C ,  7-C ) :   0.8844
B(  6-C , 16-H ) :   0.9132 B(  7-C , 17-H ) :   0.9155

MP2 TOTAL ENERGY:     -310.075964356 Eh
FINAL SINGLE POINT ENERGY      -310.075964355780

DIPOLE MOMENT
-------------
                                X             Y             Z
Electronic contribution:      0.60652      -2.99530       0.10385
Nuclear contribution   :     -0.64283       3.17463      -0.11007
                        -----------------------------------------
Total Dipole Moment    :     -0.03632       0.17933      -0.00622
                        -----------------------------------------
Magnitude (a.u.)       :      0.18308
Magnitude (Debye)      :      0.46535

                             ****ORCA TERMINATED NORMALLY****
TOTAL RUN TIME: 0 days 0 hours 13 minutes 32 seconds 420 msec
