                         Program Version 3.0.3 - RELEASE   -
|  1> ! RI-MP2 RIJK def2-TZVP def2-TZVP/C def2-TZVP/JK TIGHTSCF
|  2> % maxcore 2000
|  3> % mp2 density relaxed end
|  4> *xyz 0 1
|  5>  C        0.0163356992     1.5639279310    -0.0056436592
|  6>  C       -0.0133674589     0.0256173903    -0.0159044989
|  7>  C       -1.4191897119    -0.5315500400     0.0171042899
|  8>  C       -2.0467184071    -0.8261981441     1.2294019110
|  9>  C       -3.3563615816    -1.3028140482     1.2462477578
| 10>  C       -4.0604185871    -1.4950852393     0.0645019891
| 11>  C       -3.4393097963    -1.2045889598    -1.1512063143
| 12>  O       -4.1596689538    -1.4107374688    -2.2915981080
| 13>  C       -2.1289082553    -0.7277044254    -1.1706915190
| 14>  H        1.0454919413     1.9362500603    -0.0293814519
| 15>  H       -0.5133050454     1.9718047893    -0.8725114348
| 16>  H       -0.4683616237     1.9578400992     0.8931584091
| 17>  H        0.5061240545    -0.3390157458    -0.9098282391
| 18>  H        0.5470633662    -0.3517638493     0.8467467647
| 19>  H       -1.5072693240    -0.6860210458     2.1607980905
| 20>  H       -3.8338102108    -1.5326757387     2.1934212713
| 21>  H       -5.0776559402    -1.8689031068     0.0596596433
| 22>  H       -3.6165123132    -1.1750875123    -3.0507303131
| 23>  H       -1.6520752119    -0.5094229957    -2.1246794984
| 24> *
| 25>
| 26>                          ****END OF INPUT****

CARTESIAN COORDINATES (ANGSTROEM)
---------------------------------
  C      0.016336    1.563928   -0.005644
  C     -0.013367    0.025617   -0.015904
  C     -1.419190   -0.531550    0.017104
  C     -2.046718   -0.826198    1.229402
  C     -3.356362   -1.302814    1.246248
  C     -4.060419   -1.495085    0.064502
  C     -3.439310   -1.204589   -1.151206
  O     -4.159669   -1.410737   -2.291598
  C     -2.128908   -0.727704   -1.170692
  H      1.045492    1.936250   -0.029381
  H     -0.513305    1.971805   -0.872511
  H     -0.468362    1.957840    0.893158
  H      0.506124   -0.339016   -0.909828
  H      0.547063   -0.351764    0.846747
  H     -1.507269   -0.686021    2.160798
  H     -3.833810   -1.532676    2.193421
  H     -5.077656   -1.868903    0.059660
  H     -3.616512   -1.175088   -3.050730
  H     -1.652075   -0.509423   -2.124679

 Total Charge           Charge          ....    0
 Multiplicity           Mult            ....    1
 Number of Electrons    NEL             ....   66
 Basis Dimension        Dim             ....  339

ORBITAL ENERGIES
----------------

  NO   OCC          E(Eh)            E(eV)
   0   2.0000     -20.587110      -560.2037
   1   2.0000     -11.300088      -307.4910
   2   2.0000     -11.244133      -305.9684
   3   2.0000     -11.236592      -305.7632
   4   2.0000     -11.231343      -305.6204
   5   2.0000     -11.226472      -305.4878
   6   2.0000     -11.220867      -305.3353
   7   2.0000     -11.219219      -305.2905
   8   2.0000     -11.219114      -305.2876
   9   2.0000      -1.404540       -38.2195
  10   2.0000      -1.150352       -31.3027
  11   2.0000      -1.061762       -28.8920
  12   2.0000      -1.004375       -27.3304
  13   2.0000      -0.983589       -26.7648
  14   2.0000      -0.870211       -23.6797
  15   2.0000      -0.837492       -22.7893
  16   2.0000      -0.789570       -21.4853
  17   2.0000      -0.725981       -19.7549
  18   2.0000      -0.680831       -18.5263
  19   2.0000      -0.652225       -17.7479
  20   2.0000      -0.608394       -16.5553
  21   2.0000      -0.602758       -16.4019
  22   2.0000      -0.591689       -16.1007
  23   2.0000      -0.587151       -15.9772
  24   2.0000      -0.562318       -15.3015
  25   2.0000      -0.544736       -14.8230
  26   2.0000      -0.521249       -14.1839
  27   2.0000      -0.512620       -13.9491
  28   2.0000      -0.486430       -13.2364
  29   2.0000      -0.474646       -12.9158
  30   2.0000      -0.468743       -12.7551
  31   2.0000      -0.334231        -9.0949
  32   2.0000      -0.310243        -8.4421
  33   0.0000       0.119849         3.2612
  34   0.0000       0.132141         3.5957
  35   0.0000       0.140919         3.8346
  36   0.0000       0.151183         4.1139
  37   0.0000       0.169500         4.6123

MULLIKEN ATOMIC CHARGES
-----------------------
   0 C :   -0.383477
   1 C :   -0.266241
   2 C :    0.193185
   3 C :   -0.233126
   4 C :   -0.088243
   5 C :   -0.220249
   6 C :    0.292085
   7 O :   -0.423717
   8 C :   -0.296499
   9 H :    0.128042
  10 H :    0.125073
  11 H :    0.130122
  12 H :    0.118430
  13 H :    0.123707
  14 H :    0.117647
  15 H :    0.121380
  16 H :    0.126994
  17 H :    0.327108
  18 H :    0.107780
Sum of atomic charges:   -0.0000000

LOEWDIN ATOMIC CHARGES
----------------------
   0 C :   -0.308434
   1 C :   -0.248213
   2 C :   -0.150634
   3 C :   -0.129684
   4 C :   -0.147120
   5 C :   -0.121890
   6 C :   -0.274493
   7 O :    0.069362
   8 C :   -0.117983
   9 H :    0.119448
  10 H :    0.121132
  11 H :    0.122771
  12 H :    0.141195
  13 H :    0.142712
  14 H :    0.147784
  15 H :    0.146579
  16 H :    0.151615
  17 H :    0.189100
  18 H :    0.146754

  Mayer bond orders larger than 0.1
B(  0-C ,  1-C ) :   0.9181 B(  0-C ,  9-H ) :   0.9347 B(  0-C , 10-H ) :   0.9376
B(  0-C , 11-H ) :   0.9375 B(  1-C ,  2-C ) :   0.8315 B(  1-C , 12-H ) :   0.9440
B(  1-C , 13-H ) :   0.9449 B(  2-C ,  3-C ) :   1.3145 B(  2-C ,  8-C ) :   1.3105
B(  3-C ,  4-C ) :   1.3292 B(  3-C , 14-H ) :   0.9336 B(  4-C ,  5-C ) :   1.3390
B(  4-C , 15-H ) :   0.9379 B(  5-C ,  6-C ) :   1.3146 B(  5-C , 16-H ) :   0.9353
B(  6-C ,  7-O ) :   1.0622 B(  6-C ,  8-C ) :   1.2819 B(  7-O , 17-H ) :   0.8358
B(  8-C , 18-H ) :   0.9099

MP2 TOTAL ENERGY:     -385.278976188 Eh
FINAL SINGLE POINT ENERGY      -385.278976188320

DIPOLE MOMENT
-------------
                                X             Y             Z
Electronic contribution:     -7.17439      -5.12621      -2.12286
Nuclear contribution   :      7.71255       5.35712       1.87135
                        -----------------------------------------
Total Dipole Moment    :      0.53816       0.23091      -0.25151
                        -----------------------------------------
Magnitude (a.u.)       :      0.63733
Magnitude (Debye)      :      1.61997

                             ****ORCA TERMINATED NORMALLY****
TOTAL RUN TIME: 0 days 0 hours 18 minutes 3 seconds 867 msec
