                         Program Version 3.0.3 - RELEASE   -
|  1> ! RI-MP2 RIJK def2-TZVP def2-TZVP/C def2-TZVP/JK TIGHTSCF
|  2> % maxcore 2000
|  3> % mp2 density relaxed end
|  4> *xyz 0 1
|  5>  C       -0.9905508464     0.8310450718     0.3929914694
|  6>  N       -0.1728906742    -0.3677332106     0.2538817961
|  7>  C        1.0762141673    -0.2734071479    -0.4833746607
|  8>  C        1.0721424665    -0.4930878978     0.9995122076
|  9>  C        1.5542452366     0.5870465772     1.9541701060
| 10>  O        0.7764893254     0.5874761622     3.1211985406
| 11>  C        3.0285129054     0.3759053625     2.3556693848
| 12>  N        3.9252576200     0.2784255936     1.3463120611
| 13>  O        3.3331990878     0.3354584865     3.5362937140
| 14>  H       -0.4275220209     1.7760746159     0.3508498473
| 15>  H       -1.7260091165     0.8429198989    -0.4171477767
| 16>  H       -1.5191128691     0.7907185157     1.3485431290
| 17>  H        1.2983789597    -1.0872689027    -1.1692247065
| 18>  H        1.3783669787     0.7136750681    -0.8396716939
| 19>  H        1.2417461207    -1.5004383822     1.3786654577
| 20>  H        1.4995415324     1.5689099557     1.4562347352
| 21>  H        1.4227246724     0.5304653484     3.8472710290
| 22>  H        3.6241662212     0.1942188300     0.3909496856
| 23>  H        4.8898867331     0.1000299148     1.5737939841
| 24> *
| 25>
| 26>                          ****END OF INPUT****

CARTESIAN COORDINATES (ANGSTROEM)
---------------------------------
  C     -0.990551    0.831045    0.392991
  N     -0.172891   -0.367733    0.253882
  C      1.076214   -0.273407   -0.483375
  C      1.072142   -0.493088    0.999512
  C      1.554245    0.587047    1.954170
  O      0.776489    0.587476    3.121199
  C      3.028513    0.375905    2.355669
  N      3.925258    0.278426    1.346312
  O      3.333199    0.335458    3.536294
  H     -0.427522    1.776075    0.350850
  H     -1.726009    0.842920   -0.417148
  H     -1.519113    0.790719    1.348543
  H      1.298379   -1.087269   -1.169225
  H      1.378367    0.713675   -0.839672
  H      1.241746   -1.500438    1.378665
  H      1.499542    1.568910    1.456235
  H      1.422725    0.530465    3.847271
  H      3.624166    0.194219    0.390950
  H      4.889887    0.100030    1.573794

 Total Charge           Charge          ....    0
 Multiplicity           Mult            ....    1
 Number of Electrons    NEL             ....   70
 Basis Dimension        Dim             ....  339

ORBITAL ENERGIES
----------------

  NO   OCC          E(Eh)            E(eV)
   0   2.0000     -20.553955      -559.3015
   1   2.0000     -20.541489      -558.9623
   2   2.0000     -15.601841      -424.5477
   3   2.0000     -15.569006      -423.6542
   4   2.0000     -11.368667      -309.3572
   5   2.0000     -11.306333      -307.6610
   6   2.0000     -11.273619      -306.7708
   7   2.0000     -11.269190      -306.6503
   8   2.0000     -11.248918      -306.0986
   9   2.0000      -1.414397       -38.4877
  10   2.0000      -1.360480       -37.0206
  11   2.0000      -1.284090       -34.9419
  12   2.0000      -1.233349       -33.5611
  13   2.0000      -1.022042       -27.8112
  14   2.0000      -0.977299       -26.5937
  15   2.0000      -0.855539       -23.2804
  16   2.0000      -0.831605       -22.6291
  17   2.0000      -0.787356       -21.4250
  18   2.0000      -0.762724       -20.7548
  19   2.0000      -0.711521       -19.3615
  20   2.0000      -0.688708       -18.7407
  21   2.0000      -0.670036       -18.2326
  22   2.0000      -0.651074       -17.7166
  23   2.0000      -0.616911       -16.7870
  24   2.0000      -0.590891       -16.0790
  25   2.0000      -0.579492       -15.7688
  26   2.0000      -0.561741       -15.2857
  27   2.0000      -0.552480       -15.0337
  28   2.0000      -0.532118       -14.4797
  29   2.0000      -0.491300       -13.3690
  30   2.0000      -0.473777       -12.8921
  31   2.0000      -0.447881       -12.1875
  32   2.0000      -0.439299       -11.9539
  33   2.0000      -0.433573       -11.7981
  34   2.0000      -0.378972       -10.3123
  35   0.0000       0.117315         3.1923
  36   0.0000       0.145084         3.9479
  37   0.0000       0.162812         4.4303
  38   0.0000       0.169344         4.6081
  39   0.0000       0.175204         4.7676

MULLIKEN ATOMIC CHARGES
-----------------------
   0 C :   -0.280029
   1 N :   -0.197613
   2 C :   -0.234771
   3 C :   -0.065265
   4 C :    0.053092
   5 O :   -0.474419
   6 C :    0.272630
   7 N :   -0.467635
   8 O :   -0.375236
   9 H :    0.101239
  10 H :    0.142228
  11 H :    0.154522
  12 H :    0.138185
  13 H :    0.124642
  14 H :    0.127300
  15 H :    0.106347
  16 H :    0.339777
  17 H :    0.269088
  18 H :    0.265918
Sum of atomic charges:   -0.0000000

LOEWDIN ATOMIC CHARGES
----------------------
   0 C :   -0.322624
   1 N :    0.100957
   2 C :   -0.262087
   3 C :   -0.247279
   4 C :   -0.328612
   5 O :   -0.001335
   6 C :   -0.455597
   7 N :    0.003337
   8 O :    0.077490
   9 H :    0.104145
  10 H :    0.118719
  11 H :    0.126451
  12 H :    0.125024
  13 H :    0.122112
  14 H :    0.148906
  15 H :    0.149219
  16 H :    0.185955
  17 H :    0.176563
  18 H :    0.178657

  Mayer bond orders larger than 0.1
B(  0-C ,  1-N ) :   0.8816 B(  0-C ,  9-H ) :   0.9282 B(  0-C , 10-H ) :   0.9324
B(  0-C , 11-H ) :   0.9347 B(  1-N ,  2-C ) :   0.8984 B(  1-N ,  3-C ) :   0.9334
B(  2-C ,  3-C ) :   0.9246 B(  2-C , 12-H ) :   0.9206 B(  2-C , 13-H ) :   0.9101
B(  3-C ,  4-C ) :   0.8673 B(  3-C , 14-H ) :   0.9104 B(  4-C ,  5-O ) :   1.0993
B(  4-C ,  6-C ) :   0.9214 B(  4-C , 15-H ) :   0.9221 B(  5-O , 16-H ) :   0.7925
B(  6-C ,  7-N ) :   1.1882 B(  6-C ,  8-O ) :   1.8819 B(  7-N , 17-H ) :   0.8629
B(  7-N , 18-H ) :   0.8542

MP2 TOTAL ENERGY:     -455.610415339 Eh
FINAL SINGLE POINT ENERGY      -455.610415338745

DIPOLE MOMENT
-------------
                                X             Y             Z
Electronic contribution:      4.25975      -1.30619       5.51795
Nuclear contribution   :     -3.36838       1.54084      -6.91242
                        -----------------------------------------
Total Dipole Moment    :      0.89137       0.23465      -1.39447
                        -----------------------------------------
Magnitude (a.u.)       :      1.67157
Magnitude (Debye)      :      4.24879

                             ****ORCA TERMINATED NORMALLY****
TOTAL RUN TIME: 0 days 0 hours 17 minutes 53 seconds 967 msec
