                         Program Version 3.0.3 - RELEASE   -
|  1> ! RI-MP2 RIJK def2-TZVP def2-TZVP/C def2-TZVP/JK TIGHTSCF
|  2> % maxcore 2000
|  3> % mp2 density relaxed end
|  4> *xyz 0 1
|  5>  C       -0.2470582800     1.4950572394     0.0400789872
|  6>  C        0.0150037977     0.0164720930    -0.0278147858
|  7>  C       -0.0209689191    -0.6916463040    -1.1672105366
|  8>  C        0.1790661835    -2.1748472095    -1.2827115117
|  9>  C        0.7714204151    -2.8114901635    -0.0485410391
| 10>  O        1.9825463575    -2.2413618900     0.4249432652
| 11>  C        0.8014148970    -2.0642395894     1.2249265493
| 12>  C        0.2514835593    -0.6653539924     1.2706311190
| 13>  O        0.0040180144    -0.1375948504     2.3383765087
| 14>  H        0.6229246565     2.0277040491     0.4394487275
| 15>  H       -0.4829299615     1.9020722866    -0.9460751639
| 16>  H       -1.0755107477     1.7057060671     0.7231556885
| 17>  H       -0.2363591529    -0.1725400526    -2.0994002440
| 18>  H       -0.7817426462    -2.6587081743    -1.5117209282
| 19>  H        0.8257887235    -2.3933265072    -2.1437145149
| 20>  H        0.7386000587    -3.8999349975    -0.0027486693
| 21>  H        0.8039711741    -2.5808621844     2.1821263081
| 22> *
| 23>
| 24>                          ****END OF INPUT****

CARTESIAN COORDINATES (ANGSTROEM)
---------------------------------
  C     -0.247058    1.495057    0.040079
  C      0.015004    0.016472   -0.027815
  C     -0.020969   -0.691646   -1.167211
  C      0.179066   -2.174847   -1.282712
  C      0.771420   -2.811490   -0.048541
  O      1.982546   -2.241362    0.424943
  C      0.801415   -2.064240    1.224927
  C      0.251484   -0.665354    1.270631
  O      0.004018   -0.137595    2.338377
  H      0.622925    2.027704    0.439449
  H     -0.482930    1.902072   -0.946075
  H     -1.075511    1.705706    0.723156
  H     -0.236359   -0.172540   -2.099400
  H     -0.781743   -2.658708   -1.511721
  H      0.825789   -2.393327   -2.143715
  H      0.738600   -3.899935   -0.002749
  H      0.803971   -2.580862    2.182126

 Total Charge           Charge          ....    0
 Multiplicity           Mult            ....    1
 Number of Electrons    NEL             ....   66
 Basis Dimension        Dim             ....  327

ORBITAL ENERGIES
----------------

  NO   OCC          E(Eh)            E(eV)
   0   2.0000     -20.588416      -560.2393
   1   2.0000     -20.551679      -559.2396
   2   2.0000     -11.336168      -308.4728
   3   2.0000     -11.310293      -307.7687
   4   2.0000     -11.301273      -307.5233
   5   2.0000     -11.262872      -306.4783
   6   2.0000     -11.258669      -306.3640
   7   2.0000     -11.250318      -306.1367
   8   2.0000     -11.224904      -305.4452
   9   2.0000      -1.435977       -39.0749
  10   2.0000      -1.390055       -37.8253
  11   2.0000      -1.126972       -30.6665
  12   2.0000      -1.037306       -28.2265
  13   2.0000      -0.975848       -26.5542
  14   2.0000      -0.934739       -25.4355
  15   2.0000      -0.844329       -22.9754
  16   2.0000      -0.838017       -22.8036
  17   2.0000      -0.721016       -19.6198
  18   2.0000      -0.699422       -19.0322
  19   2.0000      -0.681075       -18.5330
  20   2.0000      -0.628680       -17.1073
  21   2.0000      -0.617566       -16.8048
  22   2.0000      -0.608174       -16.5493
  23   2.0000      -0.587080       -15.9753
  24   2.0000      -0.575164       -15.6510
  25   2.0000      -0.559038       -15.2122
  26   2.0000      -0.542541       -14.7633
  27   2.0000      -0.525323       -14.2948
  28   2.0000      -0.512914       -13.9571
  29   2.0000      -0.471985       -12.8434
  30   2.0000      -0.449759       -12.2386
  31   2.0000      -0.418345       -11.3837
  32   2.0000      -0.368985       -10.0406
  33   0.0000       0.085179         2.3178
  34   0.0000       0.129632         3.5275
  35   0.0000       0.154421         4.2020
  36   0.0000       0.168125         4.5749
  37   0.0000       0.181523         4.9395

MULLIKEN ATOMIC CHARGES
-----------------------
   0 C :   -0.393565
   1 C :    0.055578
   2 C :   -0.216061
   3 C :   -0.089675
   4 C :   -0.025764
   5 O :   -0.318201
   6 C :    0.047558
   7 C :    0.135733
   8 O :   -0.289050
   9 H :    0.145283
  10 H :    0.130857
  11 H :    0.152886
  12 H :    0.131098
  13 H :    0.130412
  14 H :    0.132649
  15 H :    0.134511
  16 H :    0.135750
Sum of atomic charges:    0.0000000

LOEWDIN ATOMIC CHARGES
----------------------
   0 C :   -0.260370
   1 C :   -0.162426
   2 C :   -0.098656
   3 C :   -0.231527
   4 C :   -0.257716
   5 O :    0.188902
   6 C :   -0.210255
   7 C :   -0.281533
   8 O :    0.158513
   9 H :    0.136564
  10 H :    0.127678
  11 H :    0.138169
  12 H :    0.148983
  13 H :    0.158319
  14 H :    0.157550
  15 H :    0.141468
  16 H :    0.146337

  Mayer bond orders larger than 0.1
B(  0-C ,  1-C ) :   0.8965 B(  0-C ,  9-H ) :   0.9236 B(  0-C , 10-H ) :   0.9494
B(  0-C , 11-H ) :   0.9201 B(  1-C ,  2-C ) :   1.6914 B(  1-C ,  7-C ) :   0.9266
B(  2-C ,  3-C ) :   0.9652 B(  2-C , 12-H ) :   0.9187 B(  3-C ,  4-C ) :   0.9406
B(  3-C , 13-H ) :   0.8912 B(  3-C , 14-H ) :   0.8982 B(  4-C ,  5-O ) :   0.9006
B(  4-C ,  6-C ) :   0.9047 B(  4-C , 15-H ) :   0.9180 B(  5-O ,  6-C ) :   0.8902
B(  6-C ,  7-C ) :   0.9468 B(  6-C , 16-H ) :   0.9290 B(  7-C ,  8-O ) :   1.9573

MP2 TOTAL ENERGY:     -421.129256385 Eh
FINAL SINGLE POINT ENERGY      -421.129256385486

DIPOLE MOMENT
-------------
                                X             Y             Z
Electronic contribution:      2.28654      -2.53835       4.42509
Nuclear contribution   :     -2.81215       1.97931      -5.59519
                        -----------------------------------------
Total Dipole Moment    :     -0.52561      -0.55904      -1.17011
                        -----------------------------------------
Magnitude (a.u.)       :      1.39927
Magnitude (Debye)      :      3.55666

                             ****ORCA TERMINATED NORMALLY****
TOTAL RUN TIME: 0 days 0 hours 17 minutes 41 seconds 955 msec
