                         Program Version 3.0.3 - RELEASE   -
|  1> ! RI-MP2 RIJK def2-TZVP def2-TZVP/C def2-TZVP/JK TIGHTSCF
|  2> % maxcore 2000
|  3> % mp2 density relaxed end
|  4> *xyz 0 1
|  5>  O       -0.6098611378     0.5188783741     0.2495312155
|  6>  C        0.3809998153     0.8740533964    -0.3334620137
|  7>  C        1.2653233545     2.0292113762     0.0973621979
|  8>  C        1.3884486582     3.0702329790    -1.0062703836
|  9>  C        2.5395537898     3.9930408021    -1.2196868042
| 10>  C        3.8775041288     3.3250336893    -0.8725221345
| 11>  C        3.5449627968     2.2628273371    -1.9553833115
| 12>  O        4.1834934513     1.3848999616    -2.4611010856
| 13>  C        2.2212826471     2.8971205830    -2.2779764333
| 14>  H        0.7189191014     0.3623375432    -1.2630038991
| 15>  H        0.8404156977     2.4710160906     1.0036183355
| 16>  H        2.2481519907     1.6124560781     0.3494242619
| 17>  H        0.4337576478     3.5361853778    -1.2437231197
| 18>  H        2.4014514470     5.0588718865    -1.3445121211
| 19>  H        4.7453080410     3.9074739312    -1.1958078561
| 20>  H        4.0390101664     2.9949197458     0.1572098647
| 21>  H        1.7677038439     2.9664015879    -3.2590784630
| 22> *
| 23>
| 24>                          ****END OF INPUT****

CARTESIAN COORDINATES (ANGSTROEM)
---------------------------------
  O     -0.609861    0.518878    0.249531
  C      0.381000    0.874053   -0.333462
  C      1.265323    2.029211    0.097362
  C      1.388449    3.070233   -1.006270
  C      2.539554    3.993041   -1.219687
  C      3.877504    3.325034   -0.872522
  C      3.544963    2.262827   -1.955383
  O      4.183493    1.384900   -2.461101
  C      2.221283    2.897121   -2.277976
  H      0.718919    0.362338   -1.263004
  H      0.840416    2.471016    1.003618
  H      2.248152    1.612456    0.349424
  H      0.433758    3.536185   -1.243723
  H      2.401451    5.058872   -1.344512
  H      4.745308    3.907474   -1.195808
  H      4.039010    2.994920    0.157210
  H      1.767704    2.966402   -3.259078

 Total Charge           Charge          ....    0
 Multiplicity           Mult            ....    1
 Number of Electrons    NEL             ....   66
 Basis Dimension        Dim             ....  327

ORBITAL ENERGIES
----------------

  NO   OCC          E(Eh)            E(eV)
   0   2.0000     -20.564335      -559.5840
   1   2.0000     -20.559149      -559.4429
   2   2.0000     -11.347290      -308.7755
   3   2.0000     -11.338800      -308.5444
   4   2.0000     -11.281800      -306.9934
   5   2.0000     -11.276222      -306.8416
   6   2.0000     -11.265834      -306.5589
   7   2.0000     -11.259653      -306.3907
   8   2.0000     -11.258217      -306.3517
   9   2.0000      -1.403917       -38.2025
  10   2.0000      -1.403048       -38.1789
  11   2.0000      -1.226452       -33.3735
  12   2.0000      -1.058710       -28.8090
  13   2.0000      -0.986288       -26.8383
  14   2.0000      -0.900460       -24.5028
  15   2.0000      -0.821822       -22.3629
  16   2.0000      -0.786612       -21.4048
  17   2.0000      -0.741639       -20.1810
  18   2.0000      -0.711266       -19.3545
  19   2.0000      -0.679677       -18.4950
  20   2.0000      -0.660429       -17.9712
  21   2.0000      -0.648039       -17.6340
  22   2.0000      -0.629967       -17.1423
  23   2.0000      -0.592403       -16.1201
  24   2.0000      -0.580251       -15.7894
  25   2.0000      -0.572870       -15.5886
  26   2.0000      -0.541561       -14.7366
  27   2.0000      -0.527495       -14.3539
  28   2.0000      -0.509228       -13.8568
  29   2.0000      -0.465676       -12.6717
  30   2.0000      -0.430928       -11.7261
  31   2.0000      -0.412176       -11.2159
  32   2.0000      -0.409883       -11.1535
  33   0.0000       0.118779         3.2321
  34   0.0000       0.123326         3.3559
  35   0.0000       0.136971         3.7272
  36   0.0000       0.144483         3.9316
  37   0.0000       0.160821         4.3761

MULLIKEN ATOMIC CHARGES
-----------------------
   0 O :   -0.257428
   1 C :    0.084006
   2 C :   -0.157483
   3 C :   -0.147212
   4 C :   -0.093214
   5 C :   -0.251070
   6 C :    0.117683
   7 O :   -0.254559
   8 C :   -0.145764
   9 H :    0.095733
  10 H :    0.132040
  11 H :    0.137603
  12 H :    0.142062
  13 H :    0.154971
  14 H :    0.143418
  15 H :    0.141980
  16 H :    0.157234
Sum of atomic charges:    0.0000000

LOEWDIN ATOMIC CHARGES
----------------------
   0 O :    0.135958
   1 C :   -0.287422
   2 C :   -0.234560
   3 C :   -0.178223
   4 C :   -0.142747
   5 C :   -0.187124
   6 C :   -0.314040
   7 O :    0.161126
   8 C :   -0.119421
   9 H :    0.115825
  10 H :    0.150647
  11 H :    0.158300
  12 H :    0.166655
  13 H :    0.142706
  14 H :    0.152245
  15 H :    0.135116
  16 H :    0.144957

  Mayer bond orders larger than 0.1
B(  0-O ,  1-C ) :   1.9958 B(  1-C ,  2-C ) :   0.8825 B(  1-C ,  9-H ) :   0.9344
B(  2-C ,  3-C ) :   0.8938 B(  2-C , 10-H ) :   0.9083 B(  2-C , 11-H ) :   0.9106
B(  3-C ,  4-C ) :   0.8813 B(  3-C ,  8-C ) :   0.8312 B(  3-C , 12-H ) :   0.9208
B(  4-C ,  5-C ) :   0.9156 B(  4-C ,  8-C ) :   0.8223 B(  4-C , 13-H ) :   0.9178
B(  5-C ,  6-C ) :   0.9326 B(  5-C ,  8-C ) :  -0.1141 B(  5-C , 14-H ) :   0.9002
B(  5-C , 15-H ) :   0.9130 B(  6-C ,  7-O ) :   2.0324 B(  6-C ,  8-C ) :   0.8828
B(  8-C , 16-H ) :   0.9089

MP2 TOTAL ENERGY:     -421.104830591 Eh
FINAL SINGLE POINT ENERGY      -421.104830591259

DIPOLE MOMENT
-------------
                                X             Y             Z
Electronic contribution:     -0.37851      -3.42207      -1.61907
Nuclear contribution   :      0.56747       4.81903       1.67239
                        -----------------------------------------
Total Dipole Moment    :      0.18896       1.39696       0.05332
                        -----------------------------------------
Magnitude (a.u.)       :      1.41069
Magnitude (Debye)      :      3.58569

                             ****ORCA TERMINATED NORMALLY****
TOTAL RUN TIME: 0 days 0 hours 16 minutes 12 seconds 100 msec
