                         Program Version 3.0.3 - RELEASE   -
|  1> ! RI-MP2 RIJK def2-TZVP def2-TZVP/C def2-TZVP/JK TIGHTSCF
|  2> % maxcore 2000
|  3> % mp2 density relaxed end
|  4> *xyz 0 1
|  5>  C       -0.1672442460     1.5543619736     0.0011164007
|  6>  C        0.0428472656     0.0414738161     0.0041266210
|  7>  C        0.8972070110    -0.5045310869    -1.1868290016
|  8>  C        2.0016629420    -1.3569900011    -0.4736051907
|  9>  C        1.1944058617    -1.9284709198     0.7163512754
| 10>  C        0.8126742195    -0.5290486640     1.2519981555
| 11>  C        2.1849127540     0.1283567945     1.2846502529
| 12>  C        2.8906974510    -0.3641630229     0.2612469533
| 13>  H        0.7894993418     2.0863814309     0.0064241685
| 14>  H       -0.7183796084     1.8716674863    -0.8908524064
| 15>  H       -0.7402869130     1.8795626504     0.8770914909
| 16>  H       -0.9413114859    -0.4414612409    -0.0145195206
| 17>  H        0.2956155863    -1.1265220541    -1.8570343727
| 18>  H        1.3337286872     0.2993669094    -1.7862744594
| 19>  H        2.5108015849    -2.0699918736    -1.1231791584
| 20>  H        0.3306113806    -2.5292132084     0.4105865430
| 21>  H        1.8126480260    -2.4987328411     1.4141762484
| 22>  H        0.2367952692    -0.4866976951     2.1780346446
| 23>  H        2.4755223002     0.9231651541     1.9602247460
| 24>  H        3.8718921420    -0.0509304175    -0.0743398006
| 25> *
| 26>
| 27>                          ****END OF INPUT****

CARTESIAN COORDINATES (ANGSTROEM)
---------------------------------
  C     -0.167244    1.554362    0.001116
  C      0.042847    0.041474    0.004127
  C      0.897207   -0.504531   -1.186829
  C      2.001663   -1.356990   -0.473605
  C      1.194406   -1.928471    0.716351
  C      0.812674   -0.529049    1.251998
  C      2.184913    0.128357    1.284650
  C      2.890697   -0.364163    0.261247
  H      0.789499    2.086381    0.006424
  H     -0.718380    1.871667   -0.890852
  H     -0.740287    1.879563    0.877091
  H     -0.941311   -0.441461   -0.014520
  H      0.295616   -1.126522   -1.857034
  H      1.333729    0.299367   -1.786274
  H      2.510802   -2.069992   -1.123179
  H      0.330611   -2.529213    0.410587
  H      1.812648   -2.498733    1.414176
  H      0.236795   -0.486698    2.178035
  H      2.475522    0.923165    1.960225
  H      3.871892   -0.050930   -0.074340

 Total Charge           Charge          ....    0
 Multiplicity           Mult            ....    1
 Number of Electrons    NEL             ....   60
 Basis Dimension        Dim             ....  320

ORBITAL ENERGIES
----------------

  NO   OCC          E(Eh)            E(eV)
   0   2.0000     -11.226160      -305.4793
   1   2.0000     -11.224514      -305.4346
   2   2.0000     -11.223165      -305.3978
   3   2.0000     -11.217356      -305.2398
   4   2.0000     -11.215526      -305.1900
   5   2.0000     -11.214924      -305.1736
   6   2.0000     -11.214699      -305.1675
   7   2.0000     -11.206910      -304.9555
   8   2.0000      -1.172952       -31.9177
   9   2.0000      -1.028162       -27.9777
  10   2.0000      -0.978913       -26.6376
  11   2.0000      -0.953237       -25.9389
  12   2.0000      -0.888680       -24.1822
  13   2.0000      -0.777511       -21.1572
  14   2.0000      -0.761782       -20.7291
  15   2.0000      -0.696098       -18.9418
  16   2.0000      -0.691102       -18.8058
  17   2.0000      -0.626382       -17.0447
  18   2.0000      -0.610996       -16.6260
  19   2.0000      -0.563354       -15.3296
  20   2.0000      -0.546997       -14.8845
  21   2.0000      -0.539118       -14.6702
  22   2.0000      -0.507404       -13.8072
  23   2.0000      -0.486815       -13.2469
  24   2.0000      -0.482687       -13.1346
  25   2.0000      -0.475139       -12.9292
  26   2.0000      -0.448216       -12.1966
  27   2.0000      -0.441022       -12.0008
  28   2.0000      -0.424661       -11.5556
  29   2.0000      -0.335327        -9.1247
  30   0.0000       0.137197         3.7333
  31   0.0000       0.147252         4.0069
  32   0.0000       0.162835         4.4310
  33   0.0000       0.172732         4.7003
  34   0.0000       0.181686         4.9439

MULLIKEN ATOMIC CHARGES
-----------------------
   0 C :   -0.429418
   1 C :   -0.068390
   2 C :   -0.266074
   3 C :    0.008185
   4 C :   -0.250421
   5 C :    0.032418
   6 C :   -0.258352
   7 C :   -0.209924
   8 H :    0.134244
   9 H :    0.132446
  10 H :    0.125480
  11 H :    0.093224
  12 H :    0.120138
  13 H :    0.112392
  14 H :    0.120494
  15 H :    0.113644
  16 H :    0.115098
  17 H :    0.121562
  18 H :    0.127940
  19 H :    0.125314
Sum of atomic charges:    0.0000000

LOEWDIN ATOMIC CHARGES
----------------------
   0 C :   -0.299415
   1 C :   -0.236397
   2 C :   -0.197979
   3 C :   -0.213202
   4 C :   -0.195629
   5 C :   -0.197293
   6 C :   -0.134954
   7 C :   -0.134067
   8 H :    0.124845
   9 H :    0.123086
  10 H :    0.122193
  11 H :    0.148650
  12 H :    0.133440
  13 H :    0.135983
  14 H :    0.139521
  15 H :    0.134667
  16 H :    0.137416
  17 H :    0.141552
  18 H :    0.133823
  19 H :    0.133763

  Mayer bond orders larger than 0.1
B(  0-C ,  1-C ) :   0.8980 B(  0-C ,  8-H ) :   0.9344 B(  0-C ,  9-H ) :   0.9411
B(  0-C , 10-H ) :   0.9409 B(  1-C ,  2-C ) :   0.9519 B(  1-C ,  5-C ) :   0.8781
B(  1-C , 11-H ) :   0.9238 B(  2-C ,  3-C ) :   0.8850 B(  2-C , 12-H ) :   0.9208
B(  2-C , 13-H ) :   0.9290 B(  3-C ,  4-C ) :   0.9374 B(  3-C ,  7-C ) :   0.9222
B(  3-C , 14-H ) :   0.9248 B(  4-C ,  5-C ) :   0.9243 B(  4-C , 15-H ) :   0.9290
B(  4-C , 16-H ) :   0.9152 B(  5-C ,  6-C ) :   0.9163 B(  5-C , 17-H ) :   0.9188
B(  6-C ,  7-C ) :   1.7726 B(  6-C , 18-H ) :   0.9342 B(  7-C , 19-H ) :   0.9318

MP2 TOTAL ENERGY:     -311.311212436 Eh
FINAL SINGLE POINT ENERGY      -311.311212435960

DIPOLE MOMENT
-------------
                                X             Y             Z
Electronic contribution:      2.82650      -1.92753       1.32871
Nuclear contribution   :     -2.94032       1.91247      -1.40678
                        -----------------------------------------
Total Dipole Moment    :     -0.11381      -0.01506      -0.07807
                        -----------------------------------------
Magnitude (a.u.)       :      0.13883
Magnitude (Debye)      :      0.35288

                             ****ORCA TERMINATED NORMALLY****
TOTAL RUN TIME: 0 days 0 hours 15 minutes 15 seconds 174 msec
