                         Program Version 3.0.3 - RELEASE   -
|  1> ! RI-MP2 RIJK def2-TZVP def2-TZVP/C def2-TZVP/JK TIGHTSCF
|  2> % maxcore 2000
|  3> % mp2 density relaxed end
|  4> *xyz 0 1
|  5>  O       -0.1785339455     1.3092399584    -0.1004650463
|  6>  N       -0.0183948593    -0.0856735361    -0.0877010728
|  7>  C       -1.1366428370    -0.6776897177    -0.0538319050
|  8>  C       -1.4489677854    -2.1150149646     0.1476515922
|  9>  C       -2.8001300344    -1.7275800973     0.6779045436
| 10>  C       -2.6151976426    -0.2850335161     0.0846960243
| 11>  N       -3.1775226657    -0.3473059285    -1.2849415779
| 12>  C       -3.1436316107    -1.5813665132    -1.5822193019
| 13>  N       -2.7407307911    -2.5104893484    -0.5538701109
| 14>  H        0.7340918684     1.6177736375    -0.1125400905
| 15>  H       -0.7757559711    -2.9213755012     0.4025905323
| 16>  H       -3.3471676313    -2.0732337448     1.5464870370
| 17>  H       -2.8745956847     0.6151196114     0.6332293614
| 18>  H       -3.4106885796    -1.9838082095    -2.5531951855
| 19> *
| 20>
| 21>                          ****END OF INPUT****

CARTESIAN COORDINATES (ANGSTROEM)
---------------------------------
  O     -0.178534    1.309240   -0.100465
  N     -0.018395   -0.085674   -0.087701
  C     -1.136643   -0.677690   -0.053832
  C     -1.448968   -2.115015    0.147652
  C     -2.800130   -1.727580    0.677905
  C     -2.615198   -0.285034    0.084696
  N     -3.177523   -0.347306   -1.284942
  C     -3.143632   -1.581367   -1.582219
  N     -2.740731   -2.510489   -0.553870
  H      0.734092    1.617774   -0.112540
  H     -0.775756   -2.921376    0.402591
  H     -3.347168   -2.073234    1.546487
  H     -2.874596    0.615120    0.633229
  H     -3.410689   -1.983808   -2.553195

 Total Charge           Charge          ....    0
 Multiplicity           Mult            ....    1
 Number of Electrons    NEL             ....   64
 Basis Dimension        Dim             ....  309

ORBITAL ENERGIES
----------------

  NO   OCC          E(Eh)            E(eV)
   0   2.0000     -20.597732      -560.4928
   1   2.0000     -15.624980      -425.1773
   2   2.0000     -15.604297      -424.6145
   3   2.0000     -15.573179      -423.7677
   4   2.0000     -11.316937      -307.9495
   5   2.0000     -11.303870      -307.5939
   6   2.0000     -11.299306      -307.4697
   7   2.0000     -11.297714      -307.4264
   8   2.0000     -11.294885      -307.3494
   9   2.0000      -1.425286       -38.7840
  10   2.0000      -1.368316       -37.2338
  11   2.0000      -1.209219       -32.9045
  12   2.0000      -1.169215       -31.8160
  13   2.0000      -1.054210       -28.6865
  14   2.0000      -0.909879       -24.7591
  15   2.0000      -0.867557       -23.6074
  16   2.0000      -0.813957       -22.1489
  17   2.0000      -0.752754       -20.4835
  18   2.0000      -0.717990       -19.5375
  19   2.0000      -0.699528       -19.0351
  20   2.0000      -0.662586       -18.0299
  21   2.0000      -0.623904       -16.9773
  22   2.0000      -0.594868       -16.1872
  23   2.0000      -0.586598       -15.9621
  24   2.0000      -0.556447       -15.1417
  25   2.0000      -0.545134       -14.8338
  26   2.0000      -0.489475       -13.3193
  27   2.0000      -0.486758       -13.2454
  28   2.0000      -0.462434       -12.5835
  29   2.0000      -0.432768       -11.7762
  30   2.0000      -0.393599       -10.7104
  31   2.0000      -0.375638       -10.2216
  32   0.0000       0.118617         3.2277
  33   0.0000       0.147395         4.0108
  34   0.0000       0.153873         4.1871
  35   0.0000       0.158603         4.3158
  36   0.0000       0.170623         4.6429

MULLIKEN ATOMIC CHARGES
-----------------------
   0 O :   -0.352256
   1 N :   -0.081329
   2 C :   -0.010614
   3 C :   -0.085290
   4 C :   -0.081151
   5 C :    0.061939
   6 N :   -0.222978
   7 C :    0.020286
   8 N :   -0.207558
   9 H :    0.339493
  10 H :    0.151863
  11 H :    0.165879
  12 H :    0.151348
  13 H :    0.150367
Sum of atomic charges:   -0.0000000

LOEWDIN ATOMIC CHARGES
----------------------
   0 O :   -0.067952
   1 N :    0.031458
   2 C :   -0.257434
   3 C :   -0.132612
   4 C :   -0.151632
   5 C :   -0.179755
   6 N :    0.129747
   7 C :   -0.261474
   8 N :    0.149394
   9 H :    0.171857
  10 H :    0.145187
  11 H :    0.138650
  12 H :    0.147439
  13 H :    0.137129

  Mayer bond orders larger than 0.1
B(  0-O ,  1-N ) :   0.8089 B(  0-O ,  9-H ) :   0.8420 B(  1-N ,  2-C ) :   1.8739
B(  2-C ,  3-C ) :   0.9614 B(  2-C ,  5-C ) :   0.8934 B(  3-C ,  4-C ) :   0.8678
B(  3-C ,  8-N ) :   0.8382 B(  3-C , 10-H ) :   0.9239 B(  4-C ,  5-C ) :   0.8857
B(  4-C ,  8-N ) :   0.8923 B(  4-C , 11-H ) :   0.8882 B(  5-C ,  6-N ) :   0.8828
B(  5-C , 12-H ) :   0.9162 B(  6-N ,  7-C ) :   1.8342 B(  7-C ,  8-N ) :   0.9718
B(  7-C , 13-H ) :   0.9202

MP2 TOTAL ENERGY:     -432.038005595 Eh
FINAL SINGLE POINT ENERGY      -432.038005595398

DIPOLE MOMENT
-------------
                                X             Y             Z
Electronic contribution:      0.47148       0.29031      -0.73471
Nuclear contribution   :     -0.30407      -0.54525       1.34390
                        -----------------------------------------
Total Dipole Moment    :      0.16741      -0.25494       0.60920
                        -----------------------------------------
Magnitude (a.u.)       :      0.68128
Magnitude (Debye)      :      1.73168

                             ****ORCA TERMINATED NORMALLY****
TOTAL RUN TIME: 0 days 0 hours 14 minutes 44 seconds 905 msec
