                         Program Version 3.0.3 - RELEASE   -
|  1> ! RI-MP2 RIJK def2-TZVP def2-TZVP/C def2-TZVP/JK TIGHTSCF
|  2> % maxcore 2000
|  3> % mp2 density relaxed end
|  4> *xyz 0 1
|  5>  C        0.1650261734     1.3866962845    -0.2423746778
|  6>  N        0.0329536831    -0.0213632862     0.0826413222
|  7>  C        0.3346560516    -0.5197067848     1.3124526571
|  8>  O        0.7397642462     0.1588491224     2.2402689227
|  9>  C        0.1484730968    -2.0283123598     1.4663528187
| 10>  C        1.4203936878    -2.6721659870     1.9993545782
| 11>  O        1.8556164798    -3.7200889265     1.6009098476
| 12>  H        0.4996917772     1.8977609924     0.6607736075
| 13>  H        0.9025174473     1.5442199790    -1.0369162975
| 14>  H       -0.7928159341     1.8106266710    -0.5621735850
| 15>  H       -0.2805650731    -0.6564544083    -0.6319312293
| 16>  H       -0.6248942979    -2.1690234167     2.2332060652
| 17>  H       -0.1652266640    -2.5466601913     0.5570719508
| 18>  H        1.9151880858    -2.0870596586     2.8005963596
| 19> *
| 20>
| 21>                          ****END OF INPUT****

CARTESIAN COORDINATES (ANGSTROEM)
---------------------------------
  C      0.165026    1.386696   -0.242375
  N      0.032954   -0.021363    0.082641
  C      0.334656   -0.519707    1.312453
  O      0.739764    0.158849    2.240269
  C      0.148473   -2.028312    1.466353
  C      1.420394   -2.672166    1.999355
  O      1.855616   -3.720089    1.600910
  H      0.499692    1.897761    0.660774
  H      0.902517    1.544220   -1.036916
  H     -0.792816    1.810627   -0.562174
  H     -0.280565   -0.656454   -0.631931
  H     -0.624894   -2.169023    2.233206
  H     -0.165227   -2.546660    0.557072
  H      1.915188   -2.087060    2.800596

 Total Charge           Charge          ....    0
 Multiplicity           Mult            ....    1
 Number of Electrons    NEL             ....   54
 Basis Dimension        Dim             ....  259

ORBITAL ENERGIES
----------------

  NO   OCC          E(Eh)            E(eV)
   0   2.0000     -20.564543      -559.5897
   1   2.0000     -20.529739      -558.6426
   2   2.0000     -15.601663      -424.5428
   3   2.0000     -11.368186      -309.3441
   4   2.0000     -11.341082      -308.6065
   5   2.0000     -11.269818      -306.6673
   6   2.0000     -11.263674      -306.5001
   7   2.0000      -1.405223       -38.2381
   8   2.0000      -1.396109       -37.9900
   9   2.0000      -1.245670       -33.8964
  10   2.0000      -1.058739       -28.8098
  11   2.0000      -0.958128       -26.0720
  12   2.0000      -0.824213       -22.4280
  13   2.0000      -0.796736       -21.6803
  14   2.0000      -0.727261       -19.7898
  15   2.0000      -0.674152       -18.3446
  16   2.0000      -0.662631       -18.0311
  17   2.0000      -0.648863       -17.6565
  18   2.0000      -0.621226       -16.9044
  19   2.0000      -0.598201       -16.2779
  20   2.0000      -0.590553       -16.0698
  21   2.0000      -0.558243       -15.1906
  22   2.0000      -0.539035       -14.6679
  23   2.0000      -0.515656       -14.0317
  24   2.0000      -0.450219       -12.2511
  25   2.0000      -0.422840       -11.5061
  26   2.0000      -0.407102       -11.0778
  27   0.0000       0.113576         3.0906
  28   0.0000       0.126894         3.4530
  29   0.0000       0.152520         4.1503
  30   0.0000       0.163655         4.4533
  31   0.0000       0.185868         5.0577

MULLIKEN ATOMIC CHARGES
-----------------------
   0 C :   -0.279436
   1 N :   -0.330304
   2 C :    0.275979
   3 O :   -0.383941
   4 C :   -0.185778
   5 C :    0.085248
   6 O :   -0.265141
   7 H :    0.179752
   8 H :    0.139209
   9 H :    0.137879
  10 H :    0.243187
  11 H :    0.148929
  12 H :    0.119251
  13 H :    0.115166
Sum of atomic charges:    0.0000000

LOEWDIN ATOMIC CHARGES
----------------------
   0 C :   -0.308491
   1 N :    0.085787
   2 C :   -0.464762
   3 O :    0.077300
   4 C :   -0.230002
   5 C :   -0.282274
   6 O :    0.133035
   7 H :    0.135823
   8 H :    0.117069
   9 H :    0.116666
  10 H :    0.185670
  11 H :    0.169280
  12 H :    0.142753
  13 H :    0.122147

  Mayer bond orders larger than 0.1
B(  0-C ,  1-N ) :   0.8418 B(  0-C ,  7-H ) :   0.9256 B(  0-C ,  8-H ) :   0.9350
B(  0-C ,  9-H ) :   0.9345 B(  1-N ,  2-C ) :   1.1779 B(  1-N , 10-H ) :   0.8734
B(  2-C ,  3-O ) :   1.8844 B(  2-C ,  4-C ) :   0.8738 B(  4-C ,  5-C ) :   0.8858
B(  4-C , 11-H ) :   0.8963 B(  4-C , 12-H ) :   0.9103 B(  5-C ,  6-O ) :   1.9852
B(  5-C , 13-H ) :   0.9256

MP2 TOTAL ENERGY:     -361.169492424 Eh
FINAL SINGLE POINT ENERGY      -361.169492423848

DIPOLE MOMENT
-------------
                                X             Y             Z
Electronic contribution:      2.10257      -4.24405       2.99035
Nuclear contribution   :     -3.05726       4.76922      -4.08162
                        -----------------------------------------
Total Dipole Moment    :     -0.95469       0.52517      -1.09127
                        -----------------------------------------
Magnitude (a.u.)       :      1.54211
Magnitude (Debye)      :      3.91974

                             ****ORCA TERMINATED NORMALLY****
TOTAL RUN TIME: 0 days 0 hours 6 minutes 42 seconds 798 msec
