                         Program Version 3.0.3 - RELEASE   -
|  1> ! RI-MP2 RIJK def2-TZVP def2-TZVP/C def2-TZVP/JK TIGHTSCF
|  2> % maxcore 2000
|  3> % mp2 density relaxed end
|  4> *xyz 0 1
|  5>  C       -0.0977775561     1.4875926766     0.0076248559
|  6>  C        0.0118565461    -0.0122854979    -0.0142326352
|  7>  C        0.2356494960    -0.7275240894    -1.1827568546
|  8>  N        0.3323986790    -2.0645837307    -1.1956731202
|  9>  C        0.2038732927    -2.6761966175    -0.0354212041
| 10>  O        0.2944320307    -4.0236815345    -0.0016630960
| 11>  C       -0.0246342774    -1.9838384053     1.1753491528
| 12>  C       -0.1652277699    -2.7195100530     2.4763153440
| 13>  N       -0.1159695497    -0.6617447781     1.1591257666
| 14>  H        0.0207898031     1.9106043234    -0.9932804321
| 15>  H       -1.0704289574     1.7988886014     0.4023279342
| 16>  H        0.6665296400     1.9220811377     0.6601626997
| 17>  H        0.3415594718    -0.2229820714    -2.1392771251
| 18>  H        0.4497572672    -4.3069679062    -0.9137780593
| 19>  H        0.7335930076    -3.3065246298     2.6950835448
| 20>  H       -0.3353985880    -2.0045967256     3.2822799562
| 21>  H       -0.9987561859    -3.4295065296     2.4383355725
| 22> *
| 23>
| 24>                          ****END OF INPUT****

CARTESIAN COORDINATES (ANGSTROEM)
---------------------------------
  C     -0.097778    1.487593    0.007625
  C      0.011857   -0.012285   -0.014233
  C      0.235649   -0.727524   -1.182757
  N      0.332399   -2.064584   -1.195673
  C      0.203873   -2.676197   -0.035421
  O      0.294432   -4.023682   -0.001663
  C     -0.024634   -1.983838    1.175349
  C     -0.165228   -2.719510    2.476315
  N     -0.115970   -0.661745    1.159126
  H      0.020790    1.910604   -0.993280
  H     -1.070429    1.798889    0.402328
  H      0.666530    1.922081    0.660163
  H      0.341559   -0.222982   -2.139277
  H      0.449757   -4.306968   -0.913778
  H      0.733593   -3.306525    2.695084
  H     -0.335399   -2.004597    3.282280
  H     -0.998756   -3.429507    2.438336

 Total Charge           Charge          ....    0
 Multiplicity           Mult            ....    1
 Number of Electrons    NEL             ....   66
 Basis Dimension        Dim             ....  327

ORBITAL ENERGIES
----------------

  NO   OCC          E(Eh)            E(eV)
   0   2.0000     -20.599526      -560.5416
   1   2.0000     -15.581198      -423.9860
   2   2.0000     -15.580130      -423.9569
   3   2.0000     -11.338771      -308.5436
   4   2.0000     -11.284862      -307.0767
   5   2.0000     -11.273430      -306.7656
   6   2.0000     -11.271844      -306.7225
   7   2.0000     -11.226676      -305.4934
   8   2.0000     -11.225797      -305.4695
   9   2.0000      -1.431717       -38.9590
  10   2.0000      -1.295870       -35.2624
  11   2.0000      -1.213731       -33.0273
  12   2.0000      -1.077678       -29.3251
  13   2.0000      -0.987135       -26.8613
  14   2.0000      -0.947675       -25.7876
  15   2.0000      -0.886571       -24.1248
  16   2.0000      -0.831420       -22.6241
  17   2.0000      -0.754921       -20.5425
  18   2.0000      -0.723458       -19.6863
  19   2.0000      -0.646894       -17.6029
  20   2.0000      -0.634387       -17.2626
  21   2.0000      -0.614900       -16.7323
  22   2.0000      -0.590360       -16.0645
  23   2.0000      -0.582064       -15.8388
  24   2.0000      -0.565582       -15.3903
  25   2.0000      -0.559379       -15.2215
  26   2.0000      -0.546807       -14.8794
  27   2.0000      -0.527803       -14.3622
  28   2.0000      -0.512684       -13.9508
  29   2.0000      -0.486367       -13.2347
  30   2.0000      -0.423677       -11.5288
  31   2.0000      -0.409856       -11.1528
  32   2.0000      -0.318998        -8.6804
  33   0.0000       0.090155         2.4532
  34   0.0000       0.136553         3.7158
  35   0.0000       0.142723         3.8837
  36   0.0000       0.150588         4.0977
  37   0.0000       0.165783         4.5112

MULLIKEN ATOMIC CHARGES
-----------------------
   0 C :   -0.413972
   1 C :    0.169693
   2 C :   -0.077360
   3 N :   -0.278677
   4 C :    0.249740
   5 O :   -0.415954
   6 C :    0.100614
   7 C :   -0.388254
   8 N :   -0.269406
   9 H :    0.131220
  10 H :    0.144976
  11 H :    0.144983
  12 H :    0.129818
  13 H :    0.335092
  14 H :    0.143749
  15 H :    0.149988
  16 H :    0.143753
Sum of atomic charges:    0.0000000

LOEWDIN ATOMIC CHARGES
----------------------
   0 C :   -0.267956
   1 C :   -0.257972
   2 C :   -0.199145
   3 N :    0.139390
   4 C :   -0.348269
   5 O :    0.087361
   6 C :   -0.225995
   7 C :   -0.262627
   8 N :    0.191571
   9 H :    0.128216
  10 H :    0.134236
  11 H :    0.134238
  12 H :    0.142203
  13 H :    0.197886
  14 H :    0.136449
  15 H :    0.133969
  16 H :    0.136446

  Mayer bond orders larger than 0.1
B(  0-C ,  1-C ) :   0.8869 B(  0-C ,  9-H ) :   0.9519 B(  0-C , 10-H ) :   0.9292
B(  0-C , 11-H ) :   0.9292 B(  1-C ,  2-C ) :   1.3599 B(  1-C ,  8-N ) :   1.2802
B(  2-C ,  3-N ) :   1.3599 B(  2-C , 12-H ) :   0.9355 B(  3-N ,  4-C ) :   1.4025
B(  4-C ,  5-O ) :   1.1466 B(  4-C ,  6-C ) :   1.2412 B(  5-O , 13-H ) :   0.8115
B(  6-C ,  7-C ) :   0.8954 B(  6-C ,  8-N ) :   1.4984 B(  7-C , 14-H ) :   0.9205
B(  7-C , 15-H ) :   0.9467 B(  7-C , 16-H ) :   0.9205

MP2 TOTAL ENERGY:     -417.370473308 Eh
FINAL SINGLE POINT ENERGY      -417.370473308230

DIPOLE MOMENT
-------------
                                X             Y             Z
Electronic contribution:      0.79259      -4.22713      -3.32599
Nuclear contribution   :     -0.75215       4.28017       3.02796
                        -----------------------------------------
Total Dipole Moment    :      0.04044       0.05304      -0.29803
                        -----------------------------------------
Magnitude (a.u.)       :      0.30540
Magnitude (Debye)      :      0.77627

                             ****ORCA TERMINATED NORMALLY****
TOTAL RUN TIME: 0 days 0 hours 16 minutes 28 seconds 100 msec
