                         Program Version 3.0.3 - RELEASE   -
|  1> ! RI-MP2 RIJK def2-TZVP def2-TZVP/C def2-TZVP/JK TIGHTSCF
|  2> % maxcore 2000
|  3> % mp2 density relaxed end
|  4> *xyz 0 1
|  5>  C       -0.0349305715     1.5684173797    -0.0850391185
|  6>  C        0.0259817029     0.0460300635    -0.0015856005
|  7>  C       -1.3340916510    -0.5761264771     0.3293037638
|  8>  C        0.7218640815    -0.6892694722    -1.1845996664
|  9>  N        2.0957703732    -0.1755878957    -1.2750071587
| 10>  C        1.7756126022    -1.2572999953    -0.2815992167
| 11>  C        1.1395002145    -0.5621806146     0.8763490244
| 12>  N        1.2655622210    -0.5479164102     2.1345497417
| 13>  O        2.3424352140    -1.3577758564     2.5512647007
| 14>  H        0.9334970936     1.9753586403    -0.3822977074
| 15>  H       -0.7874998876     1.8848471827    -0.8163134471
| 16>  H       -0.3085985856     1.9929526568     0.8859830289
| 17>  H       -2.0788683108    -0.2904022437    -0.4222317256
| 18>  H       -1.2782405234    -1.6691337254     0.3577570292
| 19>  H       -1.6832630745    -0.2321840988     1.3068521204
| 20>  H        0.2284295446    -1.1550390374    -2.0290109331
| 21>  H        2.5466482066    -0.6429375979    -2.0625390534
| 22>  H        2.3001061539    -2.2021563475    -0.3012808167
| 23>  H        2.3166638663    -1.2481774505     3.5077322050
| 24> *
| 25>
| 26>                          ****END OF INPUT****

CARTESIAN COORDINATES (ANGSTROEM)
---------------------------------
  C     -0.034931    1.568417   -0.085039
  C      0.025982    0.046030   -0.001586
  C     -1.334092   -0.576126    0.329304
  C      0.721864   -0.689269   -1.184600
  N      2.095770   -0.175588   -1.275007
  C      1.775613   -1.257300   -0.281599
  C      1.139500   -0.562181    0.876349
  N      1.265562   -0.547916    2.134550
  O      2.342435   -1.357776    2.551265
  H      0.933497    1.975359   -0.382298
  H     -0.787500    1.884847   -0.816313
  H     -0.308599    1.992953    0.885983
  H     -2.078868   -0.290402   -0.422232
  H     -1.278241   -1.669134    0.357757
  H     -1.683263   -0.232184    1.306852
  H      0.228430   -1.155039   -2.029011
  H      2.546648   -0.642938   -2.062539
  H      2.300106   -2.202156   -0.301281
  H      2.316664   -1.248177    3.507732

 Total Charge           Charge          ....    0
 Multiplicity           Mult            ....    1
 Number of Electrons    NEL             ....   68
 Basis Dimension        Dim             ....  339

ORBITAL ENERGIES
----------------

  NO   OCC          E(Eh)            E(eV)
   0   2.0000     -20.586451      -560.1858
   1   2.0000     -15.609481      -424.7556
   2   2.0000     -15.577810      -423.8937
   3   2.0000     -11.276483      -306.8487
   4   2.0000     -11.275730      -306.8282
   5   2.0000     -11.275135      -306.8120
   6   2.0000     -11.255413      -306.2754
   7   2.0000     -11.222650      -305.3838
   8   2.0000     -11.211207      -305.0724
   9   2.0000      -1.410640       -38.3855
  10   2.0000      -1.296851       -35.2891
  11   2.0000      -1.155138       -31.4329
  12   2.0000      -1.071721       -29.1630
  13   2.0000      -0.959567       -26.1111
  14   2.0000      -0.935597       -25.4589
  15   2.0000      -0.853508       -23.2251
  16   2.0000      -0.805329       -21.9141
  17   2.0000      -0.715672       -19.4744
  18   2.0000      -0.696693       -18.9580
  19   2.0000      -0.687606       -18.7107
  20   2.0000      -0.634813       -17.2741
  21   2.0000      -0.616192       -16.7674
  22   2.0000      -0.589813       -16.0496
  23   2.0000      -0.583889       -15.8884
  24   2.0000      -0.571278       -15.5453
  25   2.0000      -0.540464       -14.7068
  26   2.0000      -0.532190       -14.4816
  27   2.0000      -0.502111       -13.6631
  28   2.0000      -0.494922       -13.4675
  29   2.0000      -0.487955       -13.2779
  30   2.0000      -0.460444       -12.5293
  31   2.0000      -0.420968       -11.4551
  32   2.0000      -0.393273       -10.7015
  33   2.0000      -0.364123        -9.9083
  34   0.0000       0.130801         3.5593
  35   0.0000       0.140620         3.8265
  36   0.0000       0.155406         4.2288
  37   0.0000       0.165869         4.5135
  38   0.0000       0.181504         4.9390

MULLIKEN ATOMIC CHARGES
-----------------------
   0 C :   -0.425469
   1 C :    0.278005
   2 C :   -0.433619
   3 C :   -0.130879
   4 N :   -0.369782
   5 C :   -0.096946
   6 C :   -0.039064
   7 N :   -0.103320
   8 O :   -0.363856
   9 H :    0.160065
  10 H :    0.123881
  11 H :    0.137372
  12 H :    0.131747
  13 H :    0.137327
  14 H :    0.146827
  15 H :    0.143321
  16 H :    0.219395
  17 H :    0.149015
  18 H :    0.335981
Sum of atomic charges:   -0.0000000

LOEWDIN ATOMIC CHARGES
----------------------
   0 C :   -0.262552
   1 C :   -0.246567
   2 C :   -0.257602
   3 C :   -0.187890
   4 N :    0.014901
   5 C :   -0.183563
   6 C :   -0.224206
   7 N :    0.032647
   8 O :   -0.078126
   9 H :    0.134010
  10 H :    0.125502
  11 H :    0.130439
  12 H :    0.126285
  13 H :    0.130242
  14 H :    0.132643
  15 H :    0.133470
  16 H :    0.174449
  17 H :    0.137311
  18 H :    0.168606

  Mayer bond orders larger than 0.1
B(  0-C ,  1-C ) :   0.8796 B(  0-C ,  9-H ) :   0.9308 B(  0-C , 10-H ) :   0.9337
B(  0-C , 11-H ) :   0.9312 B(  1-C ,  2-C ) :   0.8670 B(  1-C ,  3-C ) :   0.8824
B(  1-C ,  6-C ) :   0.9333 B(  2-C , 12-H ) :   0.9360 B(  2-C , 13-H ) :   0.9296
B(  2-C , 14-H ) :   0.9365 B(  3-C ,  4-N ) :   0.9638 B(  3-C ,  5-C ) :   0.8944
B(  3-C , 15-H ) :   0.9123 B(  4-N ,  5-C ) :   0.9265 B(  4-N , 16-H ) :   0.8688
B(  5-C ,  6-C ) :   0.9087 B(  5-C , 17-H ) :   0.9233 B(  6-C ,  7-N ) :   1.9116
B(  7-N ,  8-O ) :   0.7977 B(  8-O , 18-H ) :   0.8442

MP2 TOTAL ENERGY:     -418.410790489 Eh
FINAL SINGLE POINT ENERGY      -418.410790488811

DIPOLE MOMENT
-------------
                                X             Y             Z
Electronic contribution:      6.12175      -2.87383       3.06520
Nuclear contribution   :     -6.41787       2.29900      -3.54958
                        -----------------------------------------
Total Dipole Moment    :     -0.29612      -0.57483      -0.48438
                        -----------------------------------------
Magnitude (a.u.)       :      0.80793
Magnitude (Debye)      :      2.05358

                             ****ORCA TERMINATED NORMALLY****
TOTAL RUN TIME: 0 days 0 hours 19 minutes 20 seconds 401 msec
