                         Program Version 3.0.3 - RELEASE   -
|  1> ! RI-MP2 RIJK def2-TZVP def2-TZVP/C def2-TZVP/JK TIGHTSCF
|  2> % maxcore 2000
|  3> % mp2 density relaxed end
|  4> *xyz 0 1
|  5>  O       -0.4455417206     0.0903610715     0.0042512834
|  6>  C       -0.1123728939     1.2423684144     0.0085458749
|  7>  N        1.1833905233     1.7433922785     0.0001096491
|  8>  C        2.4070205215     1.0910633247    -0.0140566878
|  9>  N        3.4627040198     1.9251358029    -0.0156287707
| 10>  C        4.6389592527     1.3238617987    -0.0301354109
| 11>  C        4.7278452422    -0.0689157352    -0.0423659839
| 12>  N        3.6348759015    -0.8265844392    -0.0403605120
| 13>  N        2.4423149031    -0.2461297216    -0.0261582410
| 14>  H       -0.8291144800     2.0880184183     0.0201218962
| 15>  H        1.2793759068     2.7493426515     0.0067720684
| 16>  H        5.5248418116     1.9546019912    -0.0318472786
| 17>  H        5.6779939822    -0.5908925357    -0.0540337571
| 18> *
| 19>
| 20>                          ****END OF INPUT****

CARTESIAN COORDINATES (ANGSTROEM)
---------------------------------
  O     -0.445542    0.090361    0.004251
  C     -0.112373    1.242368    0.008546
  N      1.183391    1.743392    0.000110
  C      2.407021    1.091063   -0.014057
  N      3.462704    1.925136   -0.015629
  C      4.638959    1.323862   -0.030135
  C      4.727845   -0.068916   -0.042366
  N      3.634876   -0.826584   -0.040361
  N      2.442315   -0.246130   -0.026158
  H     -0.829114    2.088018    0.020122
  H      1.279376    2.749343    0.006772
  H      5.524842    1.954602   -0.031847
  H      5.677994   -0.590893   -0.054034

 Total Charge           Charge          ....    0
 Multiplicity           Mult            ....    1
 Number of Electrons    NEL             ....   64
 Basis Dimension        Dim             ....  303

ORBITAL ENERGIES
----------------

  NO   OCC          E(Eh)            E(eV)
   0   2.0000     -20.546762      -559.1058
   1   2.0000     -15.645800      -425.7439
   2   2.0000     -15.624053      -425.1521
   3   2.0000     -15.614627      -424.8956
   4   2.0000     -15.608651      -424.7330
   5   2.0000     -11.377512      -309.5978
   6   2.0000     -11.371585      -309.4365
   7   2.0000     -11.324713      -308.1611
   8   2.0000     -11.288431      -307.1738
   9   2.0000      -1.412575       -38.4381
  10   2.0000      -1.390393       -37.8345
  11   2.0000      -1.293539       -35.1990
  12   2.0000      -1.245643       -33.8957
  13   2.0000      -1.124710       -30.6049
  14   2.0000      -0.966163       -26.2906
  15   2.0000      -0.945570       -25.7303
  16   2.0000      -0.848211       -23.0810
  17   2.0000      -0.781621       -21.2690
  18   2.0000      -0.733024       -19.9466
  19   2.0000      -0.720224       -19.5983
  20   2.0000      -0.693593       -18.8736
  21   2.0000      -0.646562       -17.5938
  22   2.0000      -0.637686       -17.3523
  23   2.0000      -0.627308       -17.0699
  24   2.0000      -0.578977       -15.7548
  25   2.0000      -0.526511       -14.3271
  26   2.0000      -0.523955       -14.2575
  27   2.0000      -0.487210       -13.2577
  28   2.0000      -0.459999       -12.5172
  29   2.0000      -0.448690       -12.2095
  30   2.0000      -0.409413       -11.1407
  31   2.0000      -0.368055       -10.0153
  32   0.0000       0.055736         1.5167
  33   0.0000       0.093426         2.5423
  34   0.0000       0.129605         3.5267
  35   0.0000       0.153329         4.1723
  36   0.0000       0.177037         4.8174

MULLIKEN ATOMIC CHARGES
-----------------------
   0 O :   -0.266534
   1 C :    0.176884
   2 N :   -0.281745
   3 C :    0.284334
   4 N :   -0.268898
   5 C :   -0.013626
   6 C :   -0.039921
   7 N :   -0.156115
   8 N :   -0.084616
   9 H :    0.087113
  10 H :    0.257037
  11 H :    0.149623
  12 H :    0.156463
Sum of atomic charges:   -0.0000000

LOEWDIN ATOMIC CHARGES
----------------------
   0 O :    0.127830
   1 C :   -0.402962
   2 N :    0.132694
   3 C :   -0.367452
   4 N :    0.156905
   5 C :   -0.202246
   6 C :   -0.222659
   7 N :    0.070781
   8 N :    0.096811
   9 H :    0.113116
  10 H :    0.203347
  11 H :    0.145993
  12 H :    0.147842

  Mayer bond orders larger than 0.1
B(  0-O ,  1-C ) :   1.9893 B(  1-C ,  2-N ) :   1.0182 B(  1-C ,  9-H ) :   0.9259
B(  2-N ,  3-C ) :   1.0357 B(  2-N , 10-H ) :   0.8559 B(  3-C ,  4-N ) :   1.3047
B(  3-C ,  8-N ) :   1.4625 B(  4-N ,  5-C ) :   1.4451 B(  5-C ,  6-C ) :   1.2756
B(  5-C , 11-H ) :   0.9228 B(  6-C ,  7-N ) :   1.4500 B(  6-C , 12-H ) :   0.9233
B(  7-N ,  8-N ) :   1.0976

MP2 TOTAL ENERGY:     -448.207047442 Eh
FINAL SINGLE POINT ENERGY      -448.207047441946

DIPOLE MOMENT
-------------
                                X             Y             Z
Electronic contribution:     -0.80293      -1.40747      -0.00404
Nuclear contribution   :      1.98073       3.17200       0.00771
                        -----------------------------------------
Total Dipole Moment    :      1.17780       1.76453       0.00367
                        -----------------------------------------
Magnitude (a.u.)       :      2.12150
Magnitude (Debye)      :      5.39244

                             ****ORCA TERMINATED NORMALLY****
TOTAL RUN TIME: 0 days 0 hours 14 minutes 6 seconds 439 msec
