                         Program Version 3.0.3 - RELEASE   -
|  1> ! RI-MP2 RIJK def2-TZVP def2-TZVP/C def2-TZVP/JK TIGHTSCF
|  2> % maxcore 2000
|  3> % mp2 density relaxed end
|  4> *xyz 0 1
|  5>  C       -0.2828503567     1.5171176229    -0.0315526326
|  6>  C        0.0255465271     0.0307203980     0.0639075063
|  7>  N        0.9311425155    -0.4159329669    -1.0127132627
|  8>  C        1.3623879891    -1.7768019052    -0.6932443376
|  9>  C        1.3082297468    -1.8054365112     0.8286347281
| 10>  O        1.5401752087    -2.7367288189     1.5575758746
| 11>  C        0.7844596535    -0.4482203042     1.3212272854
| 12>  C        1.9764338108     0.4427311552     1.7078579011
| 13>  O       -0.0853722923    -0.6306020840     2.4165191071
| 14>  H        0.6336625911     2.1114047777    -0.0614456532
| 15>  H       -0.8536135400     1.7326643257    -0.9414502851
| 16>  H       -0.8871027729     1.8341032279     0.8235866759
| 17>  H       -0.9289770595    -0.5271270818     0.0679746846
| 18>  H        0.4959205783    -0.3483404527    -1.9244441622
| 19>  H        0.6948152283    -2.5771574354    -1.0568281322
| 20>  H        2.3688626642    -1.9979577753    -1.0660893982
| 21>  H        2.6074130343     0.6667549892     0.8435307826
| 22>  H        1.6063661377     1.3790323804     2.1333252046
| 23>  H        2.5810591260    -0.0627144383     2.4669883256
| 24>  H        0.2325855501    -1.4168405931     2.8831517579
| 25> *
| 26>
| 27>                          ****END OF INPUT****

CARTESIAN COORDINATES (ANGSTROEM)
---------------------------------
  C     -0.282850    1.517118   -0.031553
  C      0.025547    0.030720    0.063908
  N      0.931143   -0.415933   -1.012713
  C      1.362388   -1.776802   -0.693244
  C      1.308230   -1.805437    0.828635
  O      1.540175   -2.736729    1.557576
  C      0.784460   -0.448220    1.321227
  C      1.976434    0.442731    1.707858
  O     -0.085372   -0.630602    2.416519
  H      0.633663    2.111405   -0.061446
  H     -0.853614    1.732664   -0.941450
  H     -0.887103    1.834103    0.823587
  H     -0.928977   -0.527127    0.067975
  H      0.495921   -0.348340   -1.924444
  H      0.694815   -2.577157   -1.056828
  H      2.368863   -1.997958   -1.066089
  H      2.607413    0.666755    0.843531
  H      1.606366    1.379032    2.133325
  H      2.581059   -0.062714    2.466988
  H      0.232586   -1.416841    2.883152

 Total Charge           Charge          ....    0
 Multiplicity           Mult            ....    1
 Number of Electrons    NEL             ....   70
 Basis Dimension        Dim             ....  345

ORBITAL ENERGIES
----------------

  NO   OCC          E(Eh)            E(eV)
   0   2.0000     -20.562666      -559.5386
   1   2.0000     -20.560597      -559.4823
   2   2.0000     -15.561405      -423.4474
   3   2.0000     -11.337529      -308.5098
   4   2.0000     -11.296583      -307.3957
   5   2.0000     -11.274118      -306.7844
   6   2.0000     -11.269020      -306.6456
   7   2.0000     -11.223814      -305.4155
   8   2.0000     -11.222283      -305.3738
   9   2.0000      -1.412799       -38.4442
  10   2.0000      -1.366965       -37.1970
  11   2.0000      -1.242325       -33.8054
  12   2.0000      -1.051263       -28.6063
  13   2.0000      -1.017929       -27.6992
  14   2.0000      -0.948099       -25.7991
  15   2.0000      -0.906782       -24.6748
  16   2.0000      -0.795344       -21.6424
  17   2.0000      -0.758770       -20.6472
  18   2.0000      -0.706106       -19.2141
  19   2.0000      -0.683977       -18.6119
  20   2.0000      -0.650620       -17.7043
  21   2.0000      -0.630235       -17.1496
  22   2.0000      -0.619474       -16.8567
  23   2.0000      -0.603399       -16.4193
  24   2.0000      -0.591610       -16.0985
  25   2.0000      -0.569621       -15.5002
  26   2.0000      -0.547984       -14.9114
  27   2.0000      -0.542042       -14.7497
  28   2.0000      -0.527921       -14.3655
  29   2.0000      -0.516055       -14.0426
  30   2.0000      -0.514754       -14.0072
  31   2.0000      -0.498160       -13.5556
  32   2.0000      -0.446209       -12.1420
  33   2.0000      -0.403528       -10.9805
  34   2.0000      -0.391675       -10.6580
  35   0.0000       0.118742         3.2311
  36   0.0000       0.133679         3.6376
  37   0.0000       0.152825         4.1586
  38   0.0000       0.156689         4.2637
  39   0.0000       0.179562         4.8861

MULLIKEN ATOMIC CHARGES
-----------------------
   0 C :   -0.447881
   1 C :    0.042407
   2 N :   -0.398919
   3 C :   -0.124711
   4 C :    0.096225
   5 O :   -0.290057
   6 C :    0.296719
   7 C :   -0.460365
   8 O :   -0.473674
   9 H :    0.142391
  10 H :    0.130745
  11 H :    0.148451
  12 H :    0.094565
  13 H :    0.209267
  14 H :    0.129787
  15 H :    0.141986
  16 H :    0.150004
  17 H :    0.145838
  18 H :    0.136832
  19 H :    0.330392
Sum of atomic charges:    0.0000000

LOEWDIN ATOMIC CHARGES
----------------------
   0 C :   -0.289702
   1 C :   -0.281124
   2 N :    0.003423
   3 C :   -0.263001
   4 C :   -0.283393
   5 O :    0.156637
   6 C :   -0.365740
   7 C :   -0.262037
   8 O :    0.022299
   9 H :    0.127243
  10 H :    0.124351
  11 H :    0.133604
  12 H :    0.145053
  13 H :    0.167698
  14 H :    0.140268
  15 H :    0.142808
  16 H :    0.133891
  17 H :    0.132232
  18 H :    0.130156
  19 H :    0.185334

  Mayer bond orders larger than 0.1
B(  0-C ,  1-C ) :   0.8833 B(  0-C ,  9-H ) :   0.9387 B(  0-C , 10-H ) :   0.9353
B(  0-C , 11-H ) :   0.9411 B(  1-C ,  2-N ) :   0.8543 B(  1-C ,  6-C ) :   0.8423
B(  1-C , 12-H ) :   0.9404 B(  2-N ,  3-C ) :   0.9648 B(  2-N , 13-H ) :   0.8785
B(  3-C ,  4-C ) :   0.9358 B(  3-C , 14-H ) :   0.9094 B(  3-C , 15-H ) :   0.9003
B(  4-C ,  5-O ) :   1.9833 B(  4-C ,  6-C ) :   0.8330 B(  6-C ,  7-C ) :   0.8604
B(  6-C ,  8-O ) :   1.0642 B(  7-C , 16-H ) :   0.9222 B(  7-C , 17-H ) :   0.9347
B(  7-C , 18-H ) :   0.9234 B(  8-O , 19-H ) :   0.8167

MP2 TOTAL ENERGY:     -439.595434973 Eh
FINAL SINGLE POINT ENERGY      -439.595434973462

DIPOLE MOMENT
-------------
                                X             Y             Z
Electronic contribution:      0.46169      -7.09950       2.54492
Nuclear contribution   :     -0.53629       7.37912      -3.41171
                        -----------------------------------------
Total Dipole Moment    :     -0.07460       0.27963      -0.86679
                        -----------------------------------------
Magnitude (a.u.)       :      0.91383
Magnitude (Debye)      :      2.32277

                             ****ORCA TERMINATED NORMALLY****
TOTAL RUN TIME: 0 days 0 hours 19 minutes 14 seconds 854 msec
