                         Program Version 3.0.3 - RELEASE   -
|  1> ! RI-MP2 RIJK def2-TZVP def2-TZVP/C def2-TZVP/JK TIGHTSCF
|  2> % maxcore 2000
|  3> % mp2 density relaxed end
|  4> *xyz 0 1
|  5>  N       -0.0360677354     1.2757149530     0.1166253839
|  6>  C       -0.0708555004     0.0043237214    -0.0056091963
|  7>  C       -1.3254485848    -0.7446886339    -0.0725110455
|  8>  C       -1.1831516140    -2.0706306365     0.0366581633
|  9>  C       -1.8348358899    -3.4406563658    -0.0337603427
| 10>  C       -0.3713395117    -4.0211624849    -0.0296317303
| 11>  N        0.0721580566    -2.6299935385     0.1606158641
| 12>  N        1.2293046054    -1.9956932930    -0.0833827686
| 13>  N        1.1701886148    -0.7330103879    -0.1539134717
| 14>  H        0.9408168142     1.5794034852     0.1034952361
| 15>  H       -2.2648975396    -0.2272007353    -0.2097045668
| 16>  H       -2.4317474271    -3.7121815402     0.8385214429
| 17>  H       -2.4071095509    -3.6363928880    -0.9417041170
| 18>  H       -0.1088128238    -4.6861490532     0.7954363629
| 19>  H       -0.0476362634    -4.4509099622    -0.9805921743
| 20> *
| 21>
| 22>                          ****END OF INPUT****

CARTESIAN COORDINATES (ANGSTROEM)
---------------------------------
  N     -0.036068    1.275715    0.116625
  C     -0.070856    0.004324   -0.005609
  C     -1.325449   -0.744689   -0.072511
  C     -1.183152   -2.070631    0.036658
  C     -1.834836   -3.440656   -0.033760
  C     -0.371340   -4.021162   -0.029632
  N      0.072158   -2.629994    0.160616
  N      1.229305   -1.995693   -0.083383
  N      1.170189   -0.733010   -0.153913
  H      0.940817    1.579403    0.103495
  H     -2.264898   -0.227201   -0.209705
  H     -2.431747   -3.712182    0.838521
  H     -2.407110   -3.636393   -0.941704
  H     -0.108813   -4.686149    0.795436
  H     -0.047636   -4.450910   -0.980592

 Total Charge           Charge          ....    0
 Multiplicity           Mult            ....    1
 Number of Electrons    NEL             ....   64
 Basis Dimension        Dim             ....  315

ORBITAL ENERGIES
----------------

  NO   OCC          E(Eh)            E(eV)
   0   2.0000     -15.693074      -427.0302
   1   2.0000     -15.645177      -425.7269
   2   2.0000     -15.617534      -424.9747
   3   2.0000     -15.526454      -422.4963
   4   2.0000     -11.314376      -307.8798
   5   2.0000     -11.313687      -307.8611
   6   2.0000     -11.312330      -307.8241
   7   2.0000     -11.284116      -307.0564
   8   2.0000     -11.244513      -305.9788
   9   2.0000      -1.440865       -39.2079
  10   2.0000      -1.286934       -35.0193
  11   2.0000      -1.208651       -32.8891
  12   2.0000      -1.084167       -29.5017
  13   2.0000      -1.055210       -28.7137
  14   2.0000      -0.932988       -25.3879
  15   2.0000      -0.909090       -24.7376
  16   2.0000      -0.834191       -22.6995
  17   2.0000      -0.753587       -20.5061
  18   2.0000      -0.711771       -19.3683
  19   2.0000      -0.708386       -19.2762
  20   2.0000      -0.644939       -17.5497
  21   2.0000      -0.615247       -16.7417
  22   2.0000      -0.605312       -16.4714
  23   2.0000      -0.586300       -15.9540
  24   2.0000      -0.571121       -15.5410
  25   2.0000      -0.549741       -14.9592
  26   2.0000      -0.531140       -14.4531
  27   2.0000      -0.476425       -12.9642
  28   2.0000      -0.450190       -12.2503
  29   2.0000      -0.445740       -12.1292
  30   2.0000      -0.402388       -10.9495
  31   2.0000      -0.316369        -8.6088
  32   0.0000       0.088143         2.3985
  33   0.0000       0.117175         3.1885
  34   0.0000       0.124015         3.3746
  35   0.0000       0.150522         4.0959
  36   0.0000       0.176830         4.8118

MULLIKEN ATOMIC CHARGES
-----------------------
   0 N :   -0.365706
   1 C :    0.067475
   2 C :   -0.181248
   3 C :    0.039081
   4 C :   -0.208811
   5 C :   -0.125267
   6 N :    0.064817
   7 N :   -0.138611
   8 N :   -0.114342
   9 H :    0.220814
  10 H :    0.155539
  11 H :    0.152033
  12 H :    0.152177
  13 H :    0.140749
  14 H :    0.141301
Sum of atomic charges:    0.0000000

LOEWDIN ATOMIC CHARGES
----------------------
   0 N :   -0.058825
   1 C :   -0.375870
   2 C :   -0.108331
   3 C :   -0.185327
   4 C :   -0.178461
   5 C :   -0.185197
   6 N :    0.171794
   7 N :    0.001061
   8 N :    0.040825
   9 H :    0.163919
  10 H :    0.157958
  11 H :    0.145511
  12 H :    0.145140
  13 H :    0.131248
  14 H :    0.134553

  Mayer bond orders larger than 0.1
B(  0-N ,  1-C ) :   1.9621 B(  0-N ,  9-H ) :   0.8553 B(  1-C ,  2-C ) :   1.0351
B(  1-C ,  8-N ) :   1.0752 B(  2-C ,  3-C ) :   1.5322 B(  2-C , 10-H ) :   0.9205
B(  3-C ,  4-C ) :   0.9255 B(  3-C ,  6-N ) :   1.0656 B(  4-C ,  5-C ) :   0.9543
B(  4-C , 11-H ) :   0.9098 B(  4-C , 12-H ) :   0.9085 B(  5-C ,  6-N ) :   0.8759
B(  5-C , 13-H ) :   0.9182 B(  5-C , 14-H ) :   0.9181 B(  6-N ,  7-N ) :   0.9518
B(  7-N ,  8-N ) :   1.4317

MP2 TOTAL ENERGY:     -412.217128642 Eh
FINAL SINGLE POINT ENERGY      -412.217128641841

DIPOLE MOMENT
-------------
                                X             Y             Z
Electronic contribution:      3.42096       3.08591       0.26496
Nuclear contribution   :     -4.53943      -5.15905      -0.31915
                        -----------------------------------------
Total Dipole Moment    :     -1.11847      -2.07314      -0.05419
                        -----------------------------------------
Magnitude (a.u.)       :      2.35623
Magnitude (Debye)      :      5.98906

                             ****ORCA TERMINATED NORMALLY****
TOTAL RUN TIME: 0 days 0 hours 17 minutes 41 seconds 94 msec
