                         Program Version 3.0.3 - RELEASE   -
|  1> ! RI-MP2 RIJK def2-TZVP def2-TZVP/C def2-TZVP/JK TIGHTSCF
|  2> % maxcore 2000
|  3> % mp2 density relaxed end
|  4> *xyz 0 1
|  5>  C       -0.0120247035     1.4312036737     0.4951985326
|  6>  C       -0.0999877990    -0.0518647541     0.1960156975
|  7>  C       -1.3037371978    -0.6583657099    -0.3828873260
|  8>  O       -0.1492121822    -0.4058858183    -1.1884957116
|  9>  C        1.3484349595     1.9901832828     0.2017347409
| 10>  C        2.2050995223     2.6621043261     1.0151425553
| 11>  O        3.3290488791     2.9932098359     0.3628046319
| 12>  N        3.2406946210     2.5278685975    -0.9468702255
| 13>  C        2.0740143236     1.9413438377    -1.0277964228
| 14>  H       -0.7713762698     1.9479868145    -0.1039156982
| 15>  H       -0.2647588547     1.6017388555     1.5480936439
| 16>  H        0.5618942506    -0.6853183489     0.7883743922
| 17>  H       -1.5247986675    -1.7086389572    -0.2004612699
| 18>  H       -2.1688638017    -0.0321482897    -0.5975246979
| 19>  H        2.1523282635     2.9710716757     2.0481137040
| 20>  H        1.7695826167     1.4849959790    -1.9588918964
| 21> *
| 22>
| 23>                          ****END OF INPUT****

CARTESIAN COORDINATES (ANGSTROEM)
---------------------------------
  C     -0.012025    1.431204    0.495199
  C     -0.099988   -0.051865    0.196016
  C     -1.303737   -0.658366   -0.382887
  O     -0.149212   -0.405886   -1.188496
  C      1.348435    1.990183    0.201735
  C      2.205100    2.662104    1.015143
  O      3.329049    2.993210    0.362805
  N      3.240695    2.527869   -0.946870
  C      2.074014    1.941344   -1.027796
  H     -0.771376    1.947987   -0.103916
  H     -0.264759    1.601739    1.548094
  H      0.561894   -0.685318    0.788374
  H     -1.524799   -1.708639   -0.200461
  H     -2.168864   -0.032148   -0.597525
  H      2.152328    2.971072    2.048114
  H      1.769583    1.484996   -1.958892

 Total Charge           Charge          ....    0
 Multiplicity           Mult            ....    1
 Number of Electrons    NEL             ....   66
 Basis Dimension        Dim             ....  321

ORBITAL ENERGIES
----------------

  NO   OCC          E(Eh)            E(eV)
   0   2.0000     -20.641677      -561.6886
   1   2.0000     -20.580169      -560.0149
   2   2.0000     -15.620930      -425.0671
   3   2.0000     -11.310996      -307.7878
   4   2.0000     -11.302341      -307.5523
   5   2.0000     -11.295255      -307.3595
   6   2.0000     -11.274580      -306.7969
   7   2.0000     -11.259292      -306.3809
   8   2.0000     -11.246861      -306.0427
   9   2.0000      -1.491444       -40.5843
  10   2.0000      -1.424060       -38.7506
  11   2.0000      -1.163421       -31.6583
  12   2.0000      -1.104141       -30.0452
  13   2.0000      -1.010044       -27.4847
  14   2.0000      -0.924723       -25.1630
  15   2.0000      -0.844515       -22.9804
  16   2.0000      -0.818366       -22.2689
  17   2.0000      -0.806590       -21.9484
  18   2.0000      -0.729745       -19.8574
  19   2.0000      -0.701395       -19.0859
  20   2.0000      -0.668315       -18.1858
  21   2.0000      -0.650977       -17.7140
  22   2.0000      -0.615945       -16.7607
  23   2.0000      -0.597721       -16.2648
  24   2.0000      -0.577352       -15.7105
  25   2.0000      -0.560719       -15.2579
  26   2.0000      -0.541859       -14.7447
  27   2.0000      -0.533203       -14.5092
  28   2.0000      -0.476433       -12.9644
  29   2.0000      -0.464739       -12.6462
  30   2.0000      -0.451777       -12.2935
  31   2.0000      -0.419104       -11.4044
  32   2.0000      -0.360281        -9.8037
  33   0.0000       0.119673         3.2565
  34   0.0000       0.135212         3.6793
  35   0.0000       0.159090         4.3291
  36   0.0000       0.164322         4.4714
  37   0.0000       0.180022         4.8986

MULLIKEN ATOMIC CHARGES
-----------------------
   0 C :   -0.258907
   1 C :    0.069435
   2 C :   -0.088103
   3 O :   -0.340285
   4 C :   -0.021932
   5 C :   -0.017329
   6 O :   -0.104128
   7 N :   -0.103260
   8 C :   -0.116739
   9 H :    0.145431
  10 H :    0.132347
  11 H :    0.135143
  12 H :    0.123238
  13 H :    0.118262
  14 H :    0.159025
  15 H :    0.167800
Sum of atomic charges:   -0.0000000

LOEWDIN ATOMIC CHARGES
----------------------
   0 C :   -0.209208
   1 C :   -0.285390
   2 C :   -0.262746
   3 O :    0.142982
   4 C :   -0.200212
   5 C :   -0.243843
   6 O :    0.274475
   7 N :    0.036273
   8 C :   -0.236310
   9 H :    0.157182
  10 H :    0.155195
  11 H :    0.140584
  12 H :    0.121363
  13 H :    0.121015
  14 H :    0.139321
  15 H :    0.149319

  Mayer bond orders larger than 0.1
B(  0-C ,  1-C ) :   0.9116 B(  0-C ,  4-C ) :   0.8964 B(  0-C ,  9-H ) :   0.9271
B(  0-C , 10-H ) :   0.9343 B(  1-C ,  2-C ) :   0.9770 B(  1-C ,  3-O ) :   0.8424
B(  1-C , 11-H ) :   0.9129 B(  2-C ,  3-O ) :   0.9212 B(  2-C , 12-H ) :   0.9246
B(  2-C , 13-H ) :   0.9060 B(  4-C ,  5-C ) :   1.5187 B(  4-C ,  8-C ) :   1.2212
B(  5-C ,  6-O ) :   1.1220 B(  5-C ,  7-N ) :   0.1070 B(  5-C , 14-H ) :   0.9174
B(  6-O ,  7-N ) :   0.8922 B(  7-N ,  8-C ) :   1.5902 B(  8-C , 15-H ) :   0.9133

MP2 TOTAL ENERGY:     -437.122205429 Eh
FINAL SINGLE POINT ENERGY      -437.122205429160

DIPOLE MOMENT
-------------
                                X             Y             Z
Electronic contribution:      6.45231       3.34480      -1.32178
Nuclear contribution   :     -7.90160      -3.69803       2.41272
                        -----------------------------------------
Total Dipole Moment    :     -1.44929      -0.35323       1.09095
                        -----------------------------------------
Magnitude (a.u.)       :      1.84807
Magnitude (Debye)      :      4.69742

                             ****ORCA TERMINATED NORMALLY****
TOTAL RUN TIME: 0 days 0 hours 14 minutes 0 seconds 486 msec
