                         Program Version 3.0.3 - RELEASE   -
|  1> ! RI-MP2 RIJK def2-TZVP def2-TZVP/C def2-TZVP/JK TIGHTSCF
|  2> % maxcore 2000
|  3> % mp2 density relaxed end
|  4> *xyz 0 1
|  5>  O       -0.0212210034     1.4367418197    -0.0981830234
|  6>  C        0.0178146030     0.0345078731     0.0144908095
|  7>  C       -0.0597536288    -0.6441519008     1.4250515586
|  8>  C       -1.5162833409    -0.0989907296     1.5447585895
|  9>  C       -1.3768518965    -0.6500834486     0.0793161407
| 10>  O       -2.3294726535    -0.7439527216    -0.9123390318
| 11>  C       -0.6537784484    -1.8555502913     0.6829056915
| 12>  C       -0.0676867161    -3.0757329144     0.0637209122
| 13>  C       -1.1546968901    -3.1787919047     1.1355003324
| 14>  H        0.8703745963     1.7763970867     0.0233446637
| 15>  H        0.7337046573    -0.4139491770    -0.6849333209
| 16>  H        0.7072891639    -0.6551890379     2.1964395203
| 17>  H       -2.1862557064    -0.6566307686     2.2013193465
| 18>  H       -1.6187226572     0.9803917940     1.6514662190
| 19>  H       -2.5487937826     0.1484956699    -1.2024837151
| 20>  H       -0.3456474762    -3.3214232573    -0.9564334067
| 21>  H        0.9392524813    -3.3752655956     0.3378729741
| 22>  H       -0.8631245505    -3.5445470592     2.1151315945
| 23>  H       -2.1436731713    -3.4930376269     0.8169905653
| 24> *
| 25>
| 26>                          ****END OF INPUT****

CARTESIAN COORDINATES (ANGSTROEM)
---------------------------------
  O     -0.021221    1.436742   -0.098183
  C      0.017815    0.034508    0.014491
  C     -0.059754   -0.644152    1.425052
  C     -1.516283   -0.098991    1.544759
  C     -1.376852   -0.650083    0.079316
  O     -2.329473   -0.743953   -0.912339
  C     -0.653778   -1.855550    0.682906
  C     -0.067687   -3.075733    0.063721
  C     -1.154697   -3.178792    1.135500
  H      0.870375    1.776397    0.023345
  H      0.733705   -0.413949   -0.684933
  H      0.707289   -0.655189    2.196440
  H     -2.186256   -0.656631    2.201319
  H     -1.618723    0.980392    1.651466
  H     -2.548794    0.148496   -1.202484
  H     -0.345647   -3.321423   -0.956433
  H      0.939252   -3.375266    0.337873
  H     -0.863125   -3.544547    2.115132
  H     -2.143673   -3.493038    0.816991

 Total Charge           Charge          ....    0
 Multiplicity           Mult            ....    1
 Number of Electrons    NEL             ....   68
 Basis Dimension        Dim             ....  339

ORBITAL ENERGIES
----------------

  NO   OCC          E(Eh)            E(eV)
   0   2.0000     -20.565133      -559.6057
   1   2.0000     -20.563884      -559.5717
   2   2.0000     -11.295843      -307.3755
   3   2.0000     -11.286279      -307.1153
   4   2.0000     -11.244162      -305.9692
   5   2.0000     -11.240504      -305.8697
   6   2.0000     -11.223687      -305.4120
   7   2.0000     -11.220909      -305.3365
   8   2.0000     -11.220317      -305.3204
   9   2.0000      -1.384566       -37.6760
  10   2.0000      -1.367049       -37.1993
  11   2.0000      -1.209794       -32.9202
  12   2.0000      -1.101664       -29.9778
  13   2.0000      -0.906851       -24.6767
  14   2.0000      -0.853911       -23.2361
  15   2.0000      -0.834576       -22.7100
  16   2.0000      -0.817844       -22.2547
  17   2.0000      -0.724857       -19.7243
  18   2.0000      -0.706846       -19.2343
  19   2.0000      -0.694029       -18.8855
  20   2.0000      -0.644156       -17.5284
  21   2.0000      -0.640315       -17.4239
  22   2.0000      -0.614467       -16.7205
  23   2.0000      -0.604521       -16.4499
  24   2.0000      -0.552105       -15.0235
  25   2.0000      -0.536893       -14.6096
  26   2.0000      -0.511308       -13.9134
  27   2.0000      -0.507392       -13.8068
  28   2.0000      -0.474751       -12.9186
  29   2.0000      -0.460302       -12.5255
  30   2.0000      -0.424452       -11.5499
  31   2.0000      -0.409696       -11.1484
  32   2.0000      -0.404725       -11.0131
  33   2.0000      -0.390304       -10.6207
  34   0.0000       0.134322         3.6551
  35   0.0000       0.153387         4.1739
  36   0.0000       0.157969         4.2986
  37   0.0000       0.163923         4.4606
  38   0.0000       0.190683         5.1887

MULLIKEN ATOMIC CHARGES
-----------------------
   0 O :   -0.471434
   1 C :   -0.012351
   2 C :   -0.056848
   3 C :   -0.231118
   4 C :    0.201576
   5 O :   -0.468478
   6 C :   -0.058330
   7 C :   -0.297805
   8 C :   -0.284317
   9 H :    0.325323
  10 H :    0.101900
  11 H :    0.151612
  12 H :    0.117750
  13 H :    0.127551
  14 H :    0.333953
  15 H :    0.135177
  16 H :    0.124343
  17 H :    0.125583
  18 H :    0.135913
Sum of atomic charges:   -0.0000000

LOEWDIN ATOMIC CHARGES
----------------------
   0 O :   -0.014357
   1 C :   -0.269074
   2 C :   -0.133334
   3 C :   -0.169472
   4 C :   -0.297070
   5 O :    0.032955
   6 C :   -0.184150
   7 C :   -0.201967
   8 C :   -0.199062
   9 H :    0.178904
  10 H :    0.132869
  11 H :    0.129596
  12 H :    0.131473
  13 H :    0.129883
  14 H :    0.190918
  15 H :    0.137552
  16 H :    0.132605
  17 H :    0.133518
  18 H :    0.138212

  Mayer bond orders larger than 0.1
B(  0-O ,  1-C ) :   1.1312 B(  0-O ,  2-C ) :  -0.1235 B(  0-O ,  4-C ) :  -0.1022
B(  0-O ,  9-H ) :   0.8411 B(  1-C ,  2-C ) :   0.8643 B(  1-C ,  4-C ) :   0.8852
B(  1-C , 10-H ) :   0.9698 B(  2-C ,  3-C ) :   0.9301 B(  2-C ,  6-C ) :   0.8126
B(  2-C , 11-H ) :   0.8731 B(  3-C ,  4-C ) :   0.9176 B(  3-C , 12-H ) :   0.9294
B(  3-C , 13-H ) :   0.9024 B(  4-C ,  5-O ) :   0.9735 B(  4-C ,  6-C ) :   0.8326
B(  5-O , 14-H ) :   0.8322 B(  6-C ,  7-C ) :   0.8810 B(  6-C ,  8-C ) :   0.8714
B(  7-C ,  8-C ) :   0.9635 B(  7-C , 15-H ) :   0.9153 B(  7-C , 16-H ) :   0.9177
B(  8-C , 17-H ) :   0.9205 B(  8-C , 18-H ) :   0.9160

MP2 TOTAL ENERGY:     -422.254898159 Eh
FINAL SINGLE POINT ENERGY      -422.254898159148

DIPOLE MOMENT
-------------
                                X             Y             Z
Electronic contribution:     -0.83232       3.47071      -2.13372
Nuclear contribution   :      1.51091      -3.16672       2.36784
                        -----------------------------------------
Total Dipole Moment    :      0.67859       0.30399       0.23412
                        -----------------------------------------
Magnitude (a.u.)       :      0.77955
Magnitude (Debye)      :      1.98147

                             ****ORCA TERMINATED NORMALLY****
TOTAL RUN TIME: 0 days 0 hours 17 minutes 13 seconds 181 msec
