                         Program Version 3.0.3 - RELEASE   -
|  1> ! RI-MP2 RIJK def2-TZVP def2-TZVP/C def2-TZVP/JK TIGHTSCF
|  2> % maxcore 2000
|  3> % mp2 density relaxed end
|  4> *xyz 0 1
|  5>  C        0.1430360299     0.9938942622    -0.3422401211
|  6>  O       -0.3821707980    -0.1218713319     0.3534715949
|  7>  C        0.4903244587    -0.6223204126     1.3143678229
|  8>  C        0.2197503540    -2.0101187405     1.7958329082
|  9>  C        1.4574314863    -1.7327980807     0.9544950214
| 10>  C        1.5313416688    -2.2638559749    -0.4595659422
| 11>  C        1.8521162087    -3.7744220243    -0.4905177889
| 12>  C        1.9451662884    -4.3003619547    -1.8504702552
| 13>  N        2.0167067021    -4.6961956535    -2.9339213811
| 14>  H        1.0590179031     0.7397025024    -0.8933800039
| 15>  H       -0.6222802619     1.3188146343    -1.0503647930
| 16>  H        0.3691657030     1.8234093366     0.3442238092
| 17>  H        0.8292543567     0.1207391214     2.0381079234
| 18>  H        0.3293454941    -2.2322139631     2.8510265905
| 19>  H       -0.6005919886    -2.5246729191     1.3053897632
| 20>  H        2.4042270904    -1.7234365766     1.4899668794
| 21>  H        0.5803336644    -2.0841659467    -0.9687402924
| 22>  H        2.3007349323    -1.7287140650    -1.0276220591
| 23>  H        2.7999923861    -3.9724767833     0.0235510937
| 24>  H        1.0801529217    -4.3322996599     0.0510255298
| 25> *
| 26>
| 27>                          ****END OF INPUT****

CARTESIAN COORDINATES (ANGSTROEM)
---------------------------------
  C      0.143036    0.993894   -0.342240
  O     -0.382171   -0.121871    0.353472
  C      0.490324   -0.622320    1.314368
  C      0.219750   -2.010119    1.795833
  C      1.457431   -1.732798    0.954495
  C      1.531342   -2.263856   -0.459566
  C      1.852116   -3.774422   -0.490518
  C      1.945166   -4.300362   -1.850470
  N      2.016707   -4.696196   -2.933921
  H      1.059018    0.739703   -0.893380
  H     -0.622280    1.318815   -1.050365
  H      0.369166    1.823409    0.344224
  H      0.829254    0.120739    2.038108
  H      0.329345   -2.232214    2.851027
  H     -0.600592   -2.524673    1.305390
  H      2.404227   -1.723437    1.489967
  H      0.580334   -2.084166   -0.968740
  H      2.300735   -1.728714   -1.027622
  H      2.799992   -3.972477    0.023551
  H      1.080153   -4.332300    0.051026

 Total Charge           Charge          ....    0
 Multiplicity           Mult            ....    1
 Number of Electrons    NEL             ....   68
 Basis Dimension        Dim             ....  345

ORBITAL ENERGIES
----------------

  NO   OCC          E(Eh)            E(eV)
   0   2.0000     -20.571777      -559.7865
   1   2.0000     -15.564489      -423.5313
   2   2.0000     -11.294486      -307.3386
   3   2.0000     -11.280942      -306.9700
   4   2.0000     -11.279896      -306.9416
   5   2.0000     -11.269219      -306.6510
   6   2.0000     -11.251961      -306.1814
   7   2.0000     -11.247881      -306.0704
   8   2.0000     -11.236931      -305.7724
   9   2.0000      -1.395008       -37.9601
  10   2.0000      -1.214827       -33.0571
  11   2.0000      -1.156578       -31.4721
  12   2.0000      -1.073867       -29.2214
  13   2.0000      -0.949656       -25.8414
  14   2.0000      -0.922761       -25.1096
  15   2.0000      -0.827784       -22.5251
  16   2.0000      -0.787863       -21.4388
  17   2.0000      -0.713873       -19.4255
  18   2.0000      -0.700996       -19.0751
  19   2.0000      -0.663171       -18.0458
  20   2.0000      -0.649758       -17.6808
  21   2.0000      -0.638456       -17.3733
  22   2.0000      -0.609170       -16.5764
  23   2.0000      -0.583915       -15.8891
  24   2.0000      -0.565515       -15.3885
  25   2.0000      -0.552290       -15.0286
  26   2.0000      -0.540157       -14.6984
  27   2.0000      -0.518878       -14.1194
  28   2.0000      -0.508372       -13.8335
  29   2.0000      -0.479169       -13.0389
  30   2.0000      -0.455060       -12.3828
  31   2.0000      -0.453443       -12.3388
  32   2.0000      -0.427052       -11.6207
  33   2.0000      -0.395968       -10.7748
  34   0.0000       0.122792         3.3413
  35   0.0000       0.138218         3.7611
  36   0.0000       0.152194         4.1414
  37   0.0000       0.160832         4.3764
  38   0.0000       0.179137         4.8746

MULLIKEN ATOMIC CHARGES
-----------------------
   0 C :   -0.218553
   1 O :   -0.303471
   2 C :    0.049001
   3 C :   -0.280214
   4 C :   -0.100977
   5 C :   -0.282077
   6 C :   -0.124590
   7 C :   -0.177367
   8 N :   -0.059975
   9 H :    0.117386
  10 H :    0.145426
  11 H :    0.118287
  12 H :    0.105199
  13 H :    0.139115
  14 H :    0.140827
  15 H :    0.121996
  16 H :    0.162495
  17 H :    0.135175
  18 H :    0.153351
  19 H :    0.158965
Sum of atomic charges:    0.0000000

LOEWDIN ATOMIC CHARGES
----------------------
   0 C :   -0.344176
   1 O :    0.168803
   2 C :   -0.302916
   3 C :   -0.203998
   4 C :   -0.215632
   5 C :   -0.231791
   6 C :   -0.239970
   7 C :   -0.194479
   8 N :    0.052696
   9 H :    0.103702
  10 H :    0.115498
  11 H :    0.104325
  12 H :    0.134465
  13 H :    0.133622
  14 H :    0.143764
  15 H :    0.148008
  16 H :    0.154040
  17 H :    0.146425
  18 H :    0.163205
  19 H :    0.164410

  Mayer bond orders larger than 0.1
B(  0-C ,  1-O ) :   0.8902 B(  0-C ,  9-H ) :   0.9353 B(  0-C , 10-H ) :   0.9395
B(  0-C , 11-H ) :   0.9366 B(  1-O ,  2-C ) :   0.9956 B(  2-C ,  3-C ) :   0.8901
B(  2-C ,  4-C ) :   0.8869 B(  2-C , 12-H ) :   0.9395 B(  3-C ,  4-C ) :   0.8854
B(  3-C , 13-H ) :   0.9225 B(  3-C , 14-H ) :   0.9210 B(  4-C ,  5-C ) :   0.8909
B(  4-C , 15-H ) :   0.9161 B(  5-C ,  6-C ) :   0.9232 B(  5-C , 16-H ) :   0.9286
B(  5-C , 17-H ) :   0.9286 B(  6-C ,  7-C ) :   0.9369 B(  6-C , 18-H ) :   0.9069
B(  6-C , 19-H ) :   0.9124 B(  7-C ,  8-N ) :   2.8844

MP2 TOTAL ENERGY:     -402.442882324 Eh
FINAL SINGLE POINT ENERGY      -402.442882324387

DIPOLE MOMENT
-------------
                                X             Y             Z
Electronic contribution:      0.63502      -5.71441      -4.06231
Nuclear contribution   :     -0.40107       6.69301       5.56116
                        -----------------------------------------
Total Dipole Moment    :      0.23395       0.97860       1.49884
                        -----------------------------------------
Magnitude (a.u.)       :      1.80525
Magnitude (Debye)      :      4.58858

                             ****ORCA TERMINATED NORMALLY****
TOTAL RUN TIME: 0 days 0 hours 25 minutes 58 seconds 668 msec
