                         Program Version 3.0.3 - RELEASE   -
|  1> ! RI-MP2 RIJK def2-TZVP def2-TZVP/C def2-TZVP/JK TIGHTSCF
|  2> % maxcore 2000
|  3> % mp2 density relaxed end
|  4> *xyz 0 1
|  5>  O       -0.0475026612     1.4024992864    -0.1307827013
|  6>  C       -0.0459717015     0.0104497506    -0.0027229280
|  7>  C       -0.3808415657    -0.6994713888     1.2923917805
|  8>  C       -1.1471019447     0.1597032897     2.2574535734
|  9>  C       -2.3769276076     0.3864521770     1.7838810464
| 10>  C       -3.4266879519     1.4604503919     1.5929632559
| 11>  C       -3.2747332183     1.1495953283     0.0563215119
| 12>  C       -2.6299353716    -0.2442188792     0.4395718738
| 13>  C       -1.2945828239    -0.8336528836     0.0319017575
| 14>  H       -0.3860147869     1.7644701816     0.6970538222
| 15>  H        0.7749545453    -0.4148774884    -0.5732026977
| 16>  H        0.2669306416    -1.4979758787     1.6404553349
| 17>  H       -0.6818480687     0.6360201853     3.1139372653
| 18>  H       -4.4154267626     1.1666196746     1.9608884078
| 19>  H       -3.2042968874     2.4696800877     1.9463081156
| 20>  H       -4.1979799708     1.1107984574    -0.5248992195
| 21>  H       -2.5536407619     1.8085907467    -0.4257051938
| 22>  H       -3.4137560914    -1.0107544771     0.4591721490
| 23>  H       -1.2816170608    -1.7519540714    -0.5441784338
| 24> *
| 25>
| 26>                          ****END OF INPUT****

CARTESIAN COORDINATES (ANGSTROEM)
---------------------------------
  O     -0.047503    1.402499   -0.130783
  C     -0.045972    0.010450   -0.002723
  C     -0.380842   -0.699471    1.292392
  C     -1.147102    0.159703    2.257454
  C     -2.376928    0.386452    1.783881
  C     -3.426688    1.460450    1.592963
  C     -3.274733    1.149595    0.056322
  C     -2.629935   -0.244219    0.439572
  C     -1.294583   -0.833653    0.031902
  H     -0.386015    1.764470    0.697054
  H      0.774955   -0.414877   -0.573203
  H      0.266931   -1.497976    1.640455
  H     -0.681848    0.636020    3.113937
  H     -4.415427    1.166620    1.960888
  H     -3.204297    2.469680    1.946308
  H     -4.197980    1.110798   -0.524899
  H     -2.553641    1.808591   -0.425705
  H     -3.413756   -1.010754    0.459172
  H     -1.281617   -1.751954   -0.544178

 Total Charge           Charge          ....    0
 Multiplicity           Mult            ....    1
 Number of Electrons    NEL             ....   66
 Basis Dimension        Dim             ....  339

ORBITAL ENERGIES
----------------

  NO   OCC          E(Eh)            E(eV)
   0   2.0000     -20.554788      -559.3242
   1   2.0000     -11.282974      -307.0253
   2   2.0000     -11.240587      -305.8719
   3   2.0000     -11.238092      -305.8040
   4   2.0000     -11.235571      -305.7354
   5   2.0000     -11.233375      -305.6757
   6   2.0000     -11.232453      -305.6506
   7   2.0000     -11.230515      -305.5979
   8   2.0000     -11.227234      -305.5086
   9   2.0000      -1.366670       -37.1890
  10   2.0000      -1.187906       -32.3246
  11   2.0000      -1.104317       -30.0500
  12   2.0000      -0.994803       -27.0700
  13   2.0000      -0.928998       -25.2793
  14   2.0000      -0.854506       -23.2523
  15   2.0000      -0.809288       -22.0218
  16   2.0000      -0.768397       -20.9091
  17   2.0000      -0.729236       -19.8435
  18   2.0000      -0.683288       -18.5932
  19   2.0000      -0.661308       -17.9951
  20   2.0000      -0.637440       -17.3456
  21   2.0000      -0.612933       -16.6787
  22   2.0000      -0.574944       -15.6450
  23   2.0000      -0.568824       -15.4785
  24   2.0000      -0.540823       -14.7166
  25   2.0000      -0.524477       -14.2717
  26   2.0000      -0.504367       -13.7245
  27   2.0000      -0.485848       -13.2206
  28   2.0000      -0.475855       -12.9487
  29   2.0000      -0.446165       -12.1408
  30   2.0000      -0.413264       -11.2455
  31   2.0000      -0.383470       -10.4347
  32   2.0000      -0.328231        -8.9316
  33   0.0000       0.126957         3.4547
  34   0.0000       0.139115         3.7855
  35   0.0000       0.156524         4.2592
  36   0.0000       0.176801         4.8110
  37   0.0000       0.178805         4.8655

MULLIKEN ATOMIC CHARGES
-----------------------
   0 O :   -0.459913
   1 C :    0.046529
   2 C :   -0.068708
   3 C :   -0.290964
   4 C :   -0.098896
   5 C :   -0.160769
   6 C :   -0.290263
   7 C :   -0.001525
   8 C :   -0.159930
   9 H :    0.328144
  10 H :    0.121321
  11 H :    0.129092
  12 H :    0.137076
  13 H :    0.127773
  14 H :    0.122788
  15 H :    0.121210
  16 H :    0.158685
  17 H :    0.109813
  18 H :    0.128534
Sum of atomic charges:    0.0000000

LOEWDIN ATOMIC CHARGES
----------------------
   0 O :    0.001613
   1 C :   -0.290565
   2 C :   -0.165158
   3 C :   -0.142777
   4 C :   -0.138509
   5 C :   -0.199977
   6 C :   -0.193748
   7 C :   -0.158178
   8 C :   -0.152431
   9 H :    0.176687
  10 H :    0.143674
  11 H :    0.140525
  12 H :    0.140806
  13 H :    0.142629
  14 H :    0.129572
  15 H :    0.124278
  16 H :    0.138660
  17 H :    0.158323
  18 H :    0.144577

  Mayer bond orders larger than 0.1
B(  0-O ,  1-C ) :   0.9815 B(  0-O ,  9-H ) :   0.8239 B(  1-C ,  2-C ) :   0.8742
B(  1-C ,  8-C ) :   0.8767 B(  1-C , 10-H ) :   0.9521 B(  2-C ,  3-C ) :   0.9141
B(  2-C ,  8-C ) :   0.8176 B(  2-C , 11-H ) :   0.9107 B(  3-C ,  4-C ) :   1.7583
B(  3-C , 12-H ) :   0.9461 B(  4-C ,  5-C ) :   0.9105 B(  4-C ,  7-C ) :   0.9218
B(  5-C ,  6-C ) :   0.9262 B(  5-C , 13-H ) :   0.9161 B(  5-C , 14-H ) :   0.9188
B(  6-C ,  7-C ) :   0.8549 B(  6-C , 15-H ) :   0.9242 B(  6-C , 16-H ) :   0.9205
B(  7-C ,  8-C ) :   0.9497 B(  7-C , 17-H ) :   0.9082 B(  8-C , 18-H ) :   0.9202

MP2 TOTAL ENERGY:     -385.168343605 Eh
FINAL SINGLE POINT ENERGY      -385.168343605116

DIPOLE MOMENT
-------------
                                X             Y             Z
Electronic contribution:      2.54521      -0.89271       0.38664
Nuclear contribution   :     -2.90776       0.69547      -0.05533
                        -----------------------------------------
Total Dipole Moment    :     -0.36255      -0.19725       0.33131
                        -----------------------------------------
Magnitude (a.u.)       :      0.52926
Magnitude (Debye)      :      1.34527

                             ****ORCA TERMINATED NORMALLY****
TOTAL RUN TIME: 0 days 0 hours 19 minutes 16 seconds 62 msec
