                         Program Version 3.0.3 - RELEASE   -
|  1> ! RI-MP2 RIJK def2-TZVP def2-TZVP/C def2-TZVP/JK TIGHTSCF
|  2> % maxcore 2000
|  3> % mp2 density relaxed end
|  4> *xyz 0 1
|  5>  C       -0.0686635545     1.4895446631     0.0129824817
|  6>  C       -0.0210993833    -0.0142009384    -0.0084124843
|  7>  N       -0.0320660992    -0.6253041071    -1.1962210338
|  8>  C        0.0073903144    -1.9565087211    -1.1849922048
|  9>  C        0.0648113567    -2.7103234145    -0.0142137101
| 10>  N        0.1754679041    -4.1012134587    -0.0275756802
| 11>  C        0.0736428751    -1.9724724852     1.1858746097
| 12>  C        0.1406021591    -2.6649949106     2.5189683734
| 13>  N        0.0278296410    -0.6420128200     1.1743314057
| 14>  H        0.8037216801     1.8944212131     0.5360945952
| 15>  H       -0.0924201271     1.8792812958    -1.0051799639
| 16>  H       -0.9539977726     1.8390863176     0.5543915659
| 17>  H       -0.0041835814    -2.4553935440    -2.1545441134
| 18>  H       -0.1051462761    -4.5309858604    -0.8983676633
| 19>  H       -0.2470424991    -4.5706753075     0.7605322143
| 20>  H        1.0115569975    -3.3287652469     2.5753543675
| 21>  H        0.2021126233    -1.9208732781     3.3134046914
| 22>  H       -0.7487565680    -3.2853835071     2.6958722992
| 23> *
| 24>
| 25>                          ****END OF INPUT****

CARTESIAN COORDINATES (ANGSTROEM)
---------------------------------
  C     -0.068664    1.489545    0.012982
  C     -0.021099   -0.014201   -0.008412
  N     -0.032066   -0.625304   -1.196221
  C      0.007390   -1.956509   -1.184992
  C      0.064811   -2.710323   -0.014214
  N      0.175468   -4.101213   -0.027576
  C      0.073643   -1.972472    1.185875
  C      0.140602   -2.664995    2.518968
  N      0.027830   -0.642013    1.174331
  H      0.803722    1.894421    0.536095
  H     -0.092420    1.879281   -1.005180
  H     -0.953998    1.839086    0.554392
  H     -0.004184   -2.455394   -2.154544
  H     -0.105146   -4.530986   -0.898368
  H     -0.247042   -4.570675    0.760532
  H      1.011557   -3.328765    2.575354
  H      0.202113   -1.920873    3.313405
  H     -0.748757   -3.285384    2.695872

 Total Charge           Charge          ....    0
 Multiplicity           Mult            ....    1
 Number of Electrons    NEL             ....   66
 Basis Dimension        Dim             ....  333

ORBITAL ENERGIES
----------------

  NO   OCC          E(Eh)            E(eV)
   0   2.0000     -15.573418      -423.7743
   1   2.0000     -15.556701      -423.3194
   2   2.0000     -15.556164      -423.3047
   3   2.0000     -11.297303      -307.4152
   4   2.0000     -11.289181      -307.1942
   5   2.0000     -11.277373      -306.8729
   6   2.0000     -11.275222      -306.8144
   7   2.0000     -11.233190      -305.6706
   8   2.0000     -11.213110      -305.1242
   9   2.0000      -1.303509       -35.4703
  10   2.0000      -1.223618       -33.2964
  11   2.0000      -1.183724       -32.2108
  12   2.0000      -1.059071       -28.8188
  13   2.0000      -0.988568       -26.9003
  14   2.0000      -0.951818       -25.9003
  15   2.0000      -0.862892       -23.4805
  16   2.0000      -0.817811       -22.2538
  17   2.0000      -0.736986       -20.0544
  18   2.0000      -0.692309       -18.8387
  19   2.0000      -0.652450       -17.7541
  20   2.0000      -0.641873       -17.4663
  21   2.0000      -0.610300       -16.6071
  22   2.0000      -0.582494       -15.8505
  23   2.0000      -0.573946       -15.6179
  24   2.0000      -0.549971       -14.9655
  25   2.0000      -0.540065       -14.6959
  26   2.0000      -0.532866       -14.5000
  27   2.0000      -0.530604       -14.4385
  28   2.0000      -0.483400       -13.1540
  29   2.0000      -0.463967       -12.6252
  30   2.0000      -0.405733       -11.0406
  31   2.0000      -0.396551       -10.7907
  32   2.0000      -0.308052        -8.3825
  33   0.0000       0.104619         2.8468
  34   0.0000       0.120654         3.2832
  35   0.0000       0.137387         3.7385
  36   0.0000       0.152945         4.1618
  37   0.0000       0.159533         4.3411

MULLIKEN ATOMIC CHARGES
-----------------------
   0 C :   -0.403587
   1 C :    0.230603
   2 N :   -0.255065
   3 C :   -0.106807
   4 C :    0.193958
   5 N :   -0.507847
   6 C :    0.117413
   7 C :   -0.493896
   8 N :   -0.264554
   9 H :    0.135317
  10 H :    0.144564
  11 H :    0.134089
  12 H :    0.116095
  13 H :    0.245801
  14 H :    0.256696
  15 H :    0.159470
  16 H :    0.160870
  17 H :    0.136881
Sum of atomic charges:   -0.0000000

LOEWDIN ATOMIC CHARGES
----------------------
   0 C :   -0.274808
   1 C :   -0.334049
   2 N :    0.146340
   3 C :   -0.200129
   4 C :   -0.226108
   5 N :   -0.062359
   6 C :   -0.226140
   7 C :   -0.271385
   8 N :    0.175725
   9 H :    0.131914
  10 H :    0.129977
  11 H :    0.131634
  12 H :    0.138405
  13 H :    0.170133
  14 H :    0.169724
  15 H :    0.134482
  16 H :    0.137624
  17 H :    0.129020

  Mayer bond orders larger than 0.1
B(  0-C ,  1-C ) :   0.8931 B(  0-C ,  9-H ) :   0.9296 B(  0-C , 10-H ) :   0.9531
B(  0-C , 11-H ) :   0.9286 B(  1-C ,  2-N ) :   1.4117 B(  1-C ,  8-N ) :   1.3309
B(  2-N ,  3-C ) :   1.4174 B(  3-C ,  4-C ) :   1.2668 B(  3-C , 12-H ) :   0.9675
B(  4-C ,  5-N ) :   1.0310 B(  4-C ,  6-C ) :   1.2362 B(  5-N , 13-H ) :   0.8789
B(  5-N , 14-H ) :   0.8687 B(  6-C ,  7-C ) :   0.8700 B(  6-C ,  8-N ) :   1.4774
B(  7-C , 15-H ) :   0.9343 B(  7-C , 16-H ) :   0.9423 B(  7-C , 17-H ) :   0.9311

MP2 TOTAL ENERGY:     -397.500172523 Eh
FINAL SINGLE POINT ENERGY      -397.500172523101

DIPOLE MOMENT
-------------
                                X             Y             Z
Electronic contribution:      0.09517      -0.28201      -3.34696
Nuclear contribution   :     -0.44266      -0.98623       3.51791
                        -----------------------------------------
Total Dipole Moment    :     -0.34749      -1.26823       0.17095
                        -----------------------------------------
Magnitude (a.u.)       :      1.32605
Magnitude (Debye)      :      3.37054

                             ****ORCA TERMINATED NORMALLY****
TOTAL RUN TIME: 0 days 0 hours 17 minutes 21 seconds 346 msec
