                         Program Version 3.0.3 - RELEASE   -
|  1> ! RI-MP2 RIJK def2-TZVP def2-TZVP/C def2-TZVP/JK TIGHTSCF
|  2> % maxcore 2000
|  3> % mp2 density relaxed end
|  4> *xyz 0 1
|  5>  C        0.0057466454     1.5692565464     0.0224957682
|  6>  C       -0.0038339918     0.0278896688     0.0460271636
|  7>  C        0.6941965204    -0.4574713421     1.2433820548
|  8>  N        1.2332440406    -0.8338051852     2.1943113026
|  9>  C       -1.4264870793    -0.5680451479    -0.0264928631
| 10>  C       -2.1972232261    -0.1929802794    -1.3234228062
| 11>  C       -3.0335452913    -1.4216125139    -1.5921088470
| 12>  C       -2.6461840191    -2.4611317417    -0.8561285376
| 13>  C       -1.4812042487    -2.1197466388     0.0399876090
| 14>  H        1.0263021410     1.9560636427     0.0758061519
| 15>  H       -0.4532234068     1.9329295009    -0.8999901509
| 16>  H       -0.5555992109     1.9719563172     0.8706603751
| 17>  H        0.5623744180    -0.3398438311    -0.8208592561
| 18>  H       -1.9927917079    -0.1768645039     0.8266009867
| 19>  H       -2.7948018732     0.7173942881    -1.2055097483
| 20>  H       -1.5102205520    -0.0027425602    -2.1628930454
| 21>  H       -3.8253804360    -1.4345540393    -2.3326464095
| 22>  H       -3.0731851076    -3.4566668607    -0.9021101579
| 23>  H       -0.5541108428    -2.5754864159    -0.3394817438
| 24>  H       -1.5971222517    -2.4837969940     1.0657698140
| 25> *
| 26>
| 27>                          ****END OF INPUT****

CARTESIAN COORDINATES (ANGSTROEM)
---------------------------------
  C      0.005747    1.569257    0.022496
  C     -0.003834    0.027890    0.046027
  C      0.694197   -0.457471    1.243382
  N      1.233244   -0.833805    2.194311
  C     -1.426487   -0.568045   -0.026493
  C     -2.197223   -0.192980   -1.323423
  C     -3.033545   -1.421613   -1.592109
  C     -2.646184   -2.461132   -0.856129
  C     -1.481204   -2.119747    0.039988
  H      1.026302    1.956064    0.075806
  H     -0.453223    1.932930   -0.899990
  H     -0.555599    1.971956    0.870660
  H      0.562374   -0.339844   -0.820859
  H     -1.992792   -0.176865    0.826601
  H     -2.794802    0.717394   -1.205510
  H     -1.510221   -0.002743   -2.162893
  H     -3.825380   -1.434554   -2.332646
  H     -3.073185   -3.456667   -0.902110
  H     -0.554111   -2.575486   -0.339482
  H     -1.597122   -2.483797    1.065770

 Total Charge           Charge          ....    0
 Multiplicity           Mult            ....    1
 Number of Electrons    NEL             ....   66
 Basis Dimension        Dim             ....  345

ORBITAL ENERGIES
----------------

  NO   OCC          E(Eh)            E(eV)
   0   2.0000     -15.564060      -423.5196
   1   2.0000     -11.284343      -307.0626
   2   2.0000     -11.266750      -306.5838
   3   2.0000     -11.253034      -306.2106
   4   2.0000     -11.242888      -305.9345
   5   2.0000     -11.240360      -305.8657
   6   2.0000     -11.234721      -305.7123
   7   2.0000     -11.233747      -305.6858
   8   2.0000     -11.232039      -305.6393
   9   2.0000      -1.215977       -33.0884
  10   2.0000      -1.155919       -31.4542
  11   2.0000      -1.085221       -29.5304
  12   2.0000      -0.974727       -26.5237
  13   2.0000      -0.967735       -26.3334
  14   2.0000      -0.895993       -24.3812
  15   2.0000      -0.795983       -21.6598
  16   2.0000      -0.742695       -20.2098
  17   2.0000      -0.706427       -19.2229
  18   2.0000      -0.689322       -18.7574
  19   2.0000      -0.629621       -17.1329
  20   2.0000      -0.604590       -16.4517
  21   2.0000      -0.578499       -15.7418
  22   2.0000      -0.566954       -15.4276
  23   2.0000      -0.556319       -15.1382
  24   2.0000      -0.546099       -14.8601
  25   2.0000      -0.537466       -14.6252
  26   2.0000      -0.510538       -13.8924
  27   2.0000      -0.503736       -13.7074
  28   2.0000      -0.496439       -13.5088
  29   2.0000      -0.478112       -13.0101
  30   2.0000      -0.450034       -12.2461
  31   2.0000      -0.446431       -12.1480
  32   2.0000      -0.355603        -9.6764
  33   0.0000       0.120164         3.2698
  34   0.0000       0.146289         3.9807
  35   0.0000       0.148570         4.0428
  36   0.0000       0.156012         4.2453
  37   0.0000       0.159485         4.3398

MULLIKEN ATOMIC CHARGES
-----------------------
   0 C :   -0.391246
   1 C :    0.010881
   2 C :   -0.200079
   3 N :   -0.054352
   4 C :   -0.084672
   5 C :   -0.197195
   6 C :   -0.164970
   7 C :   -0.174058
   8 C :   -0.187677
   9 H :    0.153249
  10 H :    0.144287
  11 H :    0.141334
  12 H :    0.128688
  13 H :    0.109209
  14 H :    0.131657
  15 H :    0.112442
  16 H :    0.129860
  17 H :    0.131134
  18 H :    0.120529
  19 H :    0.140981
Sum of atomic charges:   -0.0000000

LOEWDIN ATOMIC CHARGES
----------------------
   0 C :   -0.263595
   1 C :   -0.252580
   2 C :   -0.170302
   3 N :    0.057531
   4 C :   -0.191410
   5 C :   -0.219833
   6 C :   -0.162494
   7 C :   -0.159025
   8 C :   -0.213533
   9 H :    0.131295
  10 H :    0.128175
  11 H :    0.131463
  12 H :    0.176210
  13 H :    0.161739
  14 H :    0.138418
  15 H :    0.142898
  16 H :    0.136952
  17 H :    0.137779
  18 H :    0.146872
  19 H :    0.143440

  Mayer bond orders larger than 0.1
B(  0-C ,  1-C ) :   0.8951 B(  0-C ,  9-H ) :   0.9352 B(  0-C , 10-H ) :   0.9348
B(  0-C , 11-H ) :   0.9288 B(  1-C ,  2-C ) :   0.9206 B(  1-C ,  4-C ) :   0.9278
B(  1-C , 12-H ) :   0.9006 B(  2-C ,  3-N ) :   2.8890 B(  4-C ,  5-C ) :   0.9239
B(  4-C ,  8-C ) :   0.9278 B(  4-C , 13-H ) :   0.9192 B(  5-C ,  6-C ) :   0.9465
B(  5-C , 14-H ) :   0.9234 B(  5-C , 15-H ) :   0.9032 B(  6-C ,  7-C ) :   1.7894
B(  6-C , 16-H ) :   0.9303 B(  7-C ,  8-C ) :   0.9371 B(  7-C , 17-H ) :   0.9307
B(  8-C , 18-H ) :   0.9083 B(  8-C , 19-H ) :   0.9273

MP2 TOTAL ENERGY:     -365.380598107 Eh
FINAL SINGLE POINT ENERGY      -365.380598106713

DIPOLE MOMENT
-------------
                                X             Y             Z
Electronic contribution:      2.92972      -2.94663       3.82821
Nuclear contribution   :     -3.72683       3.42920      -5.06755
                        -----------------------------------------
Total Dipole Moment    :     -0.79711       0.48258      -1.23934
                        -----------------------------------------
Magnitude (a.u.)       :      1.55056
Magnitude (Debye)      :      3.94120

                             ****ORCA TERMINATED NORMALLY****
TOTAL RUN TIME: 0 days 0 hours 19 minutes 41 seconds 897 msec
