                         Program Version 3.0.3 - RELEASE   -
|  1> ! RI-MP2 RIJK def2-TZVP def2-TZVP/C def2-TZVP/JK TIGHTSCF
|  2> % maxcore 2000
|  3> % mp2 density relaxed end
|  4> *xyz 0 1
|  5>  C       -0.6317283667     1.3174812472    -0.0754122978
|  6>  C        0.0895047206    -0.0218282289    -0.0158934338
|  7>  C        1.4237045441    -0.1798904956    -0.8167232832
|  8>  C        2.1470217551    -0.6345230564     0.4805531965
|  9>  O        2.7537435743     0.4897308063     1.1710066438
| 10>  C        1.6053042193     0.6419156042     2.0396113975
| 11>  C        0.8189621614    -0.4451096770     1.2964041688
| 12>  C        2.9620244071    -1.8227826831     0.4623227620
| 13>  C        3.6220927952    -2.8278811248     0.4331011380
| 14>  H        0.0399588583     2.1519463215     0.1504365003
| 15>  H       -1.0384455902     1.4895377648    -1.0777862509
| 16>  H       -1.4668663803     1.3548724084     0.6330304978
| 17>  H       -0.6086063076    -0.8154614297    -0.2989346096
| 18>  H        1.3932898032    -0.9334515040    -1.6061772425
| 19>  H        1.8518597311     0.7442696922    -1.2123194098
| 20>  H        1.8559383419     0.3783807600     3.0749218209
| 21>  H        1.2041174859     1.6612971877     2.0213541849
| 22>  H        0.3616340562    -1.2319260358     1.8942209887
| 23>  H        4.2129248709    -3.7101354969     0.4117844782
| 24> *
| 25>
| 26>                          ****END OF INPUT****

CARTESIAN COORDINATES (ANGSTROEM)
---------------------------------
  C     -0.631728    1.317481   -0.075412
  C      0.089505   -0.021828   -0.015893
  C      1.423705   -0.179890   -0.816723
  C      2.147022   -0.634523    0.480553
  O      2.753744    0.489731    1.171007
  C      1.605304    0.641916    2.039611
  C      0.818962   -0.445110    1.296404
  C      2.962024   -1.822783    0.462323
  C      3.622093   -2.827881    0.433101
  H      0.039959    2.151946    0.150437
  H     -1.038446    1.489538   -1.077786
  H     -1.466866    1.354872    0.633030
  H     -0.608606   -0.815461   -0.298935
  H      1.393290   -0.933452   -1.606177
  H      1.851860    0.744270   -1.212319
  H      1.855938    0.378381    3.074922
  H      1.204117    1.661297    2.021354
  H      0.361634   -1.231926    1.894221
  H      4.212925   -3.710135    0.411784

 Total Charge           Charge          ....    0
 Multiplicity           Mult            ....    1
 Number of Electrons    NEL             ....   66
 Basis Dimension        Dim             ....  339

ORBITAL ENERGIES
----------------

  NO   OCC          E(Eh)            E(eV)
   0   2.0000     -20.553489      -559.2889
   1   2.0000     -11.309673      -307.7518
   2   2.0000     -11.281506      -306.9854
   3   2.0000     -11.241094      -305.8857
   4   2.0000     -11.240382      -305.8663
   5   2.0000     -11.234398      -305.7035
   6   2.0000     -11.229046      -305.5579
   7   2.0000     -11.229040      -305.5577
   8   2.0000     -11.221483      -305.3521
   9   2.0000      -1.385132       -37.6914
  10   2.0000      -1.126335       -30.6491
  11   2.0000      -1.044351       -28.4182
  12   2.0000      -0.979393       -26.6506
  13   2.0000      -0.975632       -26.5483
  14   2.0000      -0.880732       -23.9659
  15   2.0000      -0.840938       -22.8831
  16   2.0000      -0.761931       -20.7332
  17   2.0000      -0.701360       -19.0850
  18   2.0000      -0.699415       -19.0321
  19   2.0000      -0.657949       -17.9037
  20   2.0000      -0.637614       -17.3504
  21   2.0000      -0.600405       -16.3379
  22   2.0000      -0.590408       -16.0658
  23   2.0000      -0.571132       -15.5413
  24   2.0000      -0.552102       -15.0235
  25   2.0000      -0.514881       -14.0106
  26   2.0000      -0.504762       -13.7353
  27   2.0000      -0.471304       -12.8248
  28   2.0000      -0.455666       -12.3993
  29   2.0000      -0.442272       -12.0348
  30   2.0000      -0.414151       -11.2696
  31   2.0000      -0.391948       -10.6654
  32   2.0000      -0.372721       -10.1423
  33   0.0000       0.132860         3.6153
  34   0.0000       0.149016         4.0549
  35   0.0000       0.157505         4.2859
  36   0.0000       0.163740         4.4556
  37   0.0000       0.164983         4.4894

MULLIKEN ATOMIC CHARGES
-----------------------
   0 C :   -0.442952
   1 C :   -0.039807
   2 C :   -0.236684
   3 C :    0.024933
   4 O :   -0.321798
   5 C :   -0.054543
   6 C :   -0.088661
   7 C :   -0.038237
   8 C :   -0.084478
   9 H :    0.133784
  10 H :    0.138056
  11 H :    0.133332
  12 H :    0.102932
  13 H :    0.130429
  14 H :    0.115509
  15 H :    0.103391
  16 H :    0.102174
  17 H :    0.127704
  18 H :    0.194915
Sum of atomic charges:   -0.0000000

LOEWDIN ATOMIC CHARGES
----------------------
   0 C :   -0.299742
   1 C :   -0.231104
   2 C :   -0.156173
   3 C :   -0.265678
   4 O :    0.165744
   5 C :   -0.246321
   6 C :   -0.139584
   7 C :   -0.063625
   8 C :   -0.074810
   9 H :    0.124053
  10 H :    0.127017
  11 H :    0.125297
  12 H :    0.151230
  13 H :    0.136680
  14 H :    0.140786
  15 H :    0.121562
  16 H :    0.117573
  17 H :    0.138957
  18 H :    0.128140

  Mayer bond orders larger than 0.1
B(  0-C ,  1-C ) :   0.8950 B(  0-C ,  9-H ) :   0.9382 B(  0-C , 10-H ) :   0.9392
B(  0-C , 11-H ) :   0.9398 B(  1-C ,  2-C ) :   0.9705 B(  1-C ,  6-C ) :   0.9302
B(  1-C , 12-H ) :   0.9171 B(  2-C ,  3-C ) :   0.8841 B(  2-C , 13-H ) :   0.9122
B(  2-C , 14-H ) :   0.8905 B(  3-C ,  4-O ) :   0.9272 B(  3-C ,  6-C ) :   0.9033
B(  3-C ,  7-C ) :   1.2457 B(  3-C ,  8-C ) :  -0.1705 B(  4-O ,  5-C ) :   0.9383
B(  5-C ,  6-C ) :   0.9705 B(  5-C , 15-H ) :   0.9165 B(  5-C , 16-H ) :   0.9073
B(  6-C , 17-H ) :   0.9034 B(  7-C ,  8-C ) :   2.5926 B(  8-C , 18-H ) :   0.8764

MP2 TOTAL ENERGY:     -385.134438814 Eh
FINAL SINGLE POINT ENERGY      -385.134438813517

DIPOLE MOMENT
-------------
                                X             Y             Z
Electronic contribution:      6.93826      -4.26184       1.50373
Nuclear contribution   :     -7.75001       4.01216      -1.50349
                        -----------------------------------------
Total Dipole Moment    :     -0.81175      -0.24968       0.00024
                        -----------------------------------------
Magnitude (a.u.)       :      0.84928
Magnitude (Debye)      :      2.15871

                             ****ORCA TERMINATED NORMALLY****
TOTAL RUN TIME: 0 days 0 hours 19 minutes 56 seconds 558 msec
