                         Program Version 3.0.3 - RELEASE   -
|  1> ! RI-MP2 RIJK def2-TZVP def2-TZVP/C def2-TZVP/JK TIGHTSCF
|  2> % maxcore 2000
|  3> % mp2 density relaxed end
|  4> *xyz 0 1
|  5>  C       -0.0374845508     1.5156475453    -0.0105125743
|  6>  C        0.0444060154     0.0083766046    -0.0145554884
|  7>  C       -0.7925756500    -0.7829348538     0.9448915594
|  8>  C        0.7291771878    -0.7815063918     1.1258365698
|  9>  C        1.4378268957    -1.9191200075     0.4586148107
| 10>  C        1.2559034312    -1.8971135106    -0.8616892646
| 11>  C        0.4513081709    -0.6995508423    -1.3133983017
| 12>  C        1.2959529030    -0.1417951187     2.2759742862
| 13>  N        1.7522255374     0.3779918165     3.2043194853
| 14>  H        0.8885118642     1.9611482603    -0.3887700609
| 15>  H       -0.8600917903     1.8575015636    -0.6487721350
| 16>  H       -0.2089440663     1.9057527923     0.9964867276
| 17>  H       -1.3694533758    -0.2197546535     1.6709926148
| 18>  H       -1.2333256478    -1.7246579885     0.6348965488
| 19>  H        1.9892644357    -2.6614530478     1.0218260164
| 20>  H        1.6211873063    -2.6476991700    -1.5526018149
| 21>  H       -0.4251839369    -0.9875787210    -1.9075505256
| 22>  H        1.0508142404    -0.0355465072    -1.9507907136
| 23> *
| 24>
| 25>                          ****END OF INPUT****

CARTESIAN COORDINATES (ANGSTROEM)
---------------------------------
  C     -0.037485    1.515648   -0.010513
  C      0.044406    0.008377   -0.014555
  C     -0.792576   -0.782935    0.944892
  C      0.729177   -0.781506    1.125837
  C      1.437827   -1.919120    0.458615
  C      1.255903   -1.897114   -0.861689
  C      0.451308   -0.699551   -1.313398
  C      1.295953   -0.141795    2.275974
  N      1.752226    0.377992    3.204319
  H      0.888512    1.961148   -0.388770
  H     -0.860092    1.857502   -0.648772
  H     -0.208944    1.905753    0.996487
  H     -1.369453   -0.219755    1.670993
  H     -1.233326   -1.724658    0.634897
  H      1.989264   -2.661453    1.021826
  H      1.621187   -2.647699   -1.552602
  H     -0.425184   -0.987579   -1.907551
  H      1.050814   -0.035547   -1.950791

 Total Charge           Charge          ....    0
 Multiplicity           Mult            ....    1
 Number of Electrons    NEL             ....   64
 Basis Dimension        Dim             ....  333

ORBITAL ENERGIES
----------------

  NO   OCC          E(Eh)            E(eV)
   0   2.0000     -15.563223      -423.4968
   1   2.0000     -11.284043      -307.0544
   2   2.0000     -11.271396      -306.7103
   3   2.0000     -11.269562      -306.6604
   4   2.0000     -11.256206      -306.2969
   5   2.0000     -11.250248      -306.1348
   6   2.0000     -11.248904      -306.0983
   7   2.0000     -11.245515      -306.0060
   8   2.0000     -11.234288      -305.7005
   9   2.0000      -1.230849       -33.4931
  10   2.0000      -1.197952       -32.5979
  11   2.0000      -1.067587       -29.0505
  12   2.0000      -1.018658       -27.7191
  13   2.0000      -0.949460       -25.8361
  14   2.0000      -0.887916       -24.1614
  15   2.0000      -0.804537       -21.8926
  16   2.0000      -0.767031       -20.8720
  17   2.0000      -0.701490       -19.0885
  18   2.0000      -0.648015       -17.6334
  19   2.0000      -0.626892       -17.0586
  20   2.0000      -0.610476       -16.6119
  21   2.0000      -0.579147       -15.7594
  22   2.0000      -0.573977       -15.6187
  23   2.0000      -0.556922       -15.1546
  24   2.0000      -0.544540       -14.8177
  25   2.0000      -0.534236       -14.5373
  26   2.0000      -0.514932       -14.0120
  27   2.0000      -0.493316       -13.4238
  28   2.0000      -0.477222       -12.9859
  29   2.0000      -0.434874       -11.8335
  30   2.0000      -0.409525       -11.1437
  31   2.0000      -0.352462        -9.5910
  32   0.0000       0.124002         3.3743
  33   0.0000       0.131872         3.5884
  34   0.0000       0.159147         4.3306
  35   0.0000       0.163137         4.4392
  36   0.0000       0.171780         4.6744

MULLIKEN ATOMIC CHARGES
-----------------------
   0 C :   -0.407163
   1 C :    0.042657
   2 C :   -0.312188
   3 C :    0.292631
   4 C :   -0.237427
   5 C :   -0.194297
   6 C :   -0.160095
   7 C :   -0.237396
   8 N :   -0.056546
   9 H :    0.141037
  10 H :    0.142611
  11 H :    0.148121
  12 H :    0.148040
  13 H :    0.149913
  14 H :    0.145573
  15 H :    0.135905
  16 H :    0.132070
  17 H :    0.126554
Sum of atomic charges:   -0.0000000

LOEWDIN ATOMIC CHARGES
----------------------
   0 C :   -0.257185
   1 C :   -0.194500
   2 C :   -0.125884
   3 C :   -0.180734
   4 C :   -0.100554
   5 C :   -0.139803
   6 C :   -0.188257
   7 C :   -0.153407
   8 N :    0.061913
   9 H :    0.132629
  10 H :    0.132212
  11 H :    0.136305
  12 H :    0.146648
  13 H :    0.144251
  14 H :    0.148028
  15 H :    0.140191
  16 H :    0.149088
  17 H :    0.149060

  Mayer bond orders larger than 0.1
B(  0-C ,  1-C ) :   0.9208 B(  0-C ,  9-H ) :   0.9327 B(  0-C , 10-H ) :   0.9359
B(  0-C , 11-H ) :   0.9267 B(  1-C ,  2-C ) :   0.9258 B(  1-C ,  3-C ) :   0.7724
B(  1-C ,  6-C ) :   0.9242 B(  2-C ,  3-C ) :   0.8077 B(  2-C , 12-H ) :   0.9223
B(  2-C , 13-H ) :   0.9106 B(  3-C ,  4-C ) :   0.9063 B(  3-C ,  7-C ) :   0.9206
B(  4-C ,  5-C ) :   1.7998 B(  4-C , 14-H ) :   0.9247 B(  5-C ,  6-C ) :   0.9648
B(  5-C , 15-H ) :   0.9270 B(  6-C , 16-H ) :   0.9067 B(  6-C , 17-H ) :   0.9076
B(  7-C ,  8-N ) :   2.8658

MP2 TOTAL ENERGY:     -364.166835896 Eh
FINAL SINGLE POINT ENERGY      -364.166835895885

DIPOLE MOMENT
-------------
                                X             Y             Z
Electronic contribution:      3.42459      -1.90449       5.73640
Nuclear contribution   :     -4.20521       1.41540      -7.22429
                        -----------------------------------------
Total Dipole Moment    :     -0.78061      -0.48909      -1.48789
                        -----------------------------------------
Magnitude (a.u.)       :      1.74997
Magnitude (Debye)      :      4.44807

                             ****ORCA TERMINATED NORMALLY****
TOTAL RUN TIME: 0 days 0 hours 19 minutes 17 seconds 475 msec
