                         Program Version 3.0.3 - RELEASE   -
|  1> ! RI-MP2 RIJK def2-TZVP def2-TZVP/C def2-TZVP/JK TIGHTSCF
|  2> % maxcore 2000
|  3> % mp2 density relaxed end
|  4> *xyz 0 1
|  5>  C        0.5562708172     1.5007488433    -0.1612237407
|  6>  C       -0.0768667707     0.1176862318    -0.1209888155
|  7>  C        0.3909642501    -0.8640275557    -1.2291696086
|  8>  C        1.1443003078    -1.6407126708    -0.1144622526
|  9>  N        0.4750900746    -0.8050879356     0.9213393955
| 10>  C        0.7064898426    -3.1004813459     0.0983077229
| 11>  O        0.0229526615    -3.7119055632    -0.6733412284
| 12>  C        2.6021751992    -1.5538035593    -0.1439380248
| 13>  N        3.7575330871    -1.4922065877    -0.1301693219
| 14>  H        1.6431642429     1.4387742876    -0.2843105425
| 15>  H        0.1517242960     2.0826251486    -0.9962927161
| 16>  H        0.3456703022     2.0526005915     0.7614679706
| 17>  H       -1.1638075647     0.2078356299    -0.0258986554
| 18>  H       -0.3888862001    -1.4779488798    -1.6792054645
| 19>  H        1.0202097378    -0.4328250037    -2.0068898699
| 20>  H        1.1008085682    -0.3739110208     1.5943373122
| 21>  H        1.0341305684    -3.5185275303     1.0728082697
| 22> *
| 23>
| 24>                          ****END OF INPUT****

CARTESIAN COORDINATES (ANGSTROEM)
---------------------------------
  C      0.556271    1.500749   -0.161224
  C     -0.076867    0.117686   -0.120989
  C      0.390964   -0.864028   -1.229170
  C      1.144300   -1.640713   -0.114462
  N      0.475090   -0.805088    0.921339
  C      0.706490   -3.100481    0.098308
  O      0.022953   -3.711906   -0.673341
  C      2.602175   -1.553804   -0.143938
  N      3.757533   -1.492207   -0.130169
  H      1.643164    1.438774   -0.284311
  H      0.151724    2.082625   -0.996293
  H      0.345670    2.052601    0.761468
  H     -1.163808    0.207836   -0.025899
  H     -0.388886   -1.477949   -1.679205
  H      1.020210   -0.432825   -2.006890
  H      1.100809   -0.373911    1.594337
  H      1.034131   -3.518528    1.072808

 Total Charge           Charge          ....    0
 Multiplicity           Mult            ....    1
 Number of Electrons    NEL             ....   66
 Basis Dimension        Dim             ....  327

ORBITAL ENERGIES
----------------

  NO   OCC          E(Eh)            E(eV)
   0   2.0000     -20.582733      -560.0846
   1   2.0000     -15.594540      -424.3490
   2   2.0000     -15.586095      -424.1192
   3   2.0000     -11.357002      -309.0397
   4   2.0000     -11.334442      -308.4258
   5   2.0000     -11.292209      -307.2766
   6   2.0000     -11.288715      -307.1816
   7   2.0000     -11.259067      -306.3748
   8   2.0000     -11.240344      -305.8653
   9   2.0000      -1.424177       -38.7538
  10   2.0000      -1.284852       -34.9626
  11   2.0000      -1.233305       -33.5599
  12   2.0000      -1.051055       -28.6007
  13   2.0000      -1.026391       -27.9295
  14   2.0000      -0.952775       -25.9263
  15   2.0000      -0.848441       -23.0872
  16   2.0000      -0.797052       -21.6889
  17   2.0000      -0.751955       -20.4617
  18   2.0000      -0.716163       -19.4878
  19   2.0000      -0.681139       -18.5347
  20   2.0000      -0.630051       -17.1446
  21   2.0000      -0.623557       -16.9678
  22   2.0000      -0.590741       -16.0749
  23   2.0000      -0.571393       -15.5484
  24   2.0000      -0.569963       -15.5095
  25   2.0000      -0.553866       -15.0714
  26   2.0000      -0.547320       -14.8933
  27   2.0000      -0.516977       -14.0677
  28   2.0000      -0.501238       -13.6394
  29   2.0000      -0.498173       -13.5560
  30   2.0000      -0.474750       -12.9186
  31   2.0000      -0.439702       -11.9649
  32   2.0000      -0.409049       -11.1308
  33   0.0000       0.103403         2.8137
  34   0.0000       0.121144         3.2965
  35   0.0000       0.133829         3.6417
  36   0.0000       0.149985         4.0813
  37   0.0000       0.171935         4.6786

MULLIKEN ATOMIC CHARGES
-----------------------
   0 C :   -0.446732
   1 C :    0.042557
   2 C :   -0.283785
   3 C :    0.331003
   4 N :   -0.352084
   5 C :    0.106130
   6 O :   -0.246731
   7 C :   -0.278524
   8 N :   -0.041412
   9 H :    0.147806
  10 H :    0.138510
  11 H :    0.143134
  12 H :    0.107664
  13 H :    0.164094
  14 H :    0.149732
  15 H :    0.222335
  16 H :    0.096304
Sum of atomic charges:    0.0000000

LOEWDIN ATOMIC CHARGES
----------------------
   0 C :   -0.299968
   1 C :   -0.277711
   2 C :   -0.151873
   3 C :   -0.298465
   4 N :    0.068221
   5 C :   -0.233094
   6 O :    0.163046
   7 C :   -0.158245
   8 N :    0.080458
   9 H :    0.128741
  10 H :    0.131361
  11 H :    0.127726
  12 H :    0.139979
  13 H :    0.146636
  14 H :    0.142830
  15 H :    0.166141
  16 H :    0.124215

  Mayer bond orders larger than 0.1
B(  0-C ,  1-C ) :   0.9311 B(  0-C ,  9-H ) :   0.9271 B(  0-C , 10-H ) :   0.9322
B(  0-C , 11-H ) :   0.9360 B(  1-C ,  2-C ) :   0.9178 B(  1-C ,  4-N ) :   0.9519
B(  1-C , 12-H ) :   0.9148 B(  2-C ,  3-C ) :   0.8622 B(  2-C , 13-H ) :   0.9086
B(  2-C , 14-H ) :   0.9277 B(  3-C ,  4-N ) :   0.9628 B(  3-C ,  5-C ) :   0.8019
B(  3-C ,  7-C ) :   0.9344 B(  4-N , 15-H ) :   0.8786 B(  5-C ,  6-O ) :   1.9950
B(  5-C , 16-H ) :   0.9284 B(  7-C ,  8-N ) :   2.8427

MP2 TOTAL ENERGY:     -417.295712803 Eh
FINAL SINGLE POINT ENERGY      -417.295712803328

DIPOLE MOMENT
-------------
                                X             Y             Z
Electronic contribution:      3.49320      -8.47091       0.38479
Nuclear contribution   :     -4.19143       9.50573      -0.17808
                        -----------------------------------------
Total Dipole Moment    :     -0.69823       1.03482       0.20671
                        -----------------------------------------
Magnitude (a.u.)       :      1.26535
Magnitude (Debye)      :      3.21626

                             ****ORCA TERMINATED NORMALLY****
TOTAL RUN TIME: 0 days 0 hours 16 minutes 45 seconds 606 msec
