                         Program Version 3.0.3 - RELEASE   -
|  1> ! RI-MP2 RIJK def2-TZVP def2-TZVP/C def2-TZVP/JK TIGHTSCF
|  2> % maxcore 2000
|  3> % mp2 density relaxed end
|  4> *xyz 0 1
|  5>  O       -0.1147238524     1.4891537126     0.1020388081
|  6>  C       -0.0168351011     0.0757304243    -0.0003242130
|  7>  C        0.7350065360    -0.5156290338     1.2009356304
|  8>  C        0.0180395508    -0.2116695863     2.5084569010
|  9>  O        0.5782913798     0.1044176741     3.5203311629
| 10>  O       -1.3385907328    -0.2937956807     2.4968761071
| 11>  C       -2.0308194960    -0.7469205526     1.3500107373
| 12>  C       -2.6154056387     0.2827302099     0.4334831320
| 13>  C       -1.4158311775    -0.5284111011    -0.0036379669
| 14>  H        0.7678910564     1.8433451730     0.2531416811
| 15>  H        0.4990346474    -0.2012221977    -0.9305063012
| 16>  H        0.8111281689    -1.6031660326     1.0787525416
| 17>  H        1.7518943349    -0.1257369387     1.2959189097
| 18>  H       -2.5802660734    -1.6583363185     1.5608886264
| 19>  H       -3.5731569493     0.0746052264    -0.0294536750
| 20>  H       -2.4287867365     1.3194565710     0.6836395624
| 21>  H       -1.5736134665    -1.3073595194    -0.7414319139
| 22> *
| 23>
| 24>                          ****END OF INPUT****

CARTESIAN COORDINATES (ANGSTROEM)
---------------------------------
  O     -0.114724    1.489154    0.102039
  C     -0.016835    0.075730   -0.000324
  C      0.735007   -0.515629    1.200936
  C      0.018040   -0.211670    2.508457
  O      0.578291    0.104418    3.520331
  O     -1.338591   -0.293796    2.496876
  C     -2.030819   -0.746921    1.350011
  C     -2.615406    0.282730    0.433483
  C     -1.415831   -0.528411   -0.003638
  H      0.767891    1.843345    0.253142
  H      0.499035   -0.201222   -0.930506
  H      0.811128   -1.603166    1.078753
  H      1.751894   -0.125737    1.295919
  H     -2.580266   -1.658336    1.560889
  H     -3.573157    0.074605   -0.029454
  H     -2.428787    1.319457    0.683640
  H     -1.573613   -1.307360   -0.741432

 Total Charge           Charge          ....    0
 Multiplicity           Mult            ....    1
 Number of Electrons    NEL             ....   68
 Basis Dimension        Dim             ....  327

ORBITAL ENERGIES
----------------

  NO   OCC          E(Eh)            E(eV)
   0   2.0000     -20.601414      -560.5930
   1   2.0000     -20.576588      -559.9174
   2   2.0000     -20.537059      -558.8418
   3   2.0000     -11.380651      -309.6833
   4   2.0000     -11.313615      -307.8591
   5   2.0000     -11.303875      -307.5941
   6   2.0000     -11.258078      -306.3479
   7   2.0000     -11.253407      -306.2208
   8   2.0000     -11.239621      -305.8456
   9   2.0000      -1.457460       -39.6595
  10   2.0000      -1.385865       -37.7113
  11   2.0000      -1.363528       -37.1035
  12   2.0000      -1.160360       -31.5750
  13   2.0000      -1.066894       -29.0317
  14   2.0000      -0.922839       -25.1117
  15   2.0000      -0.883082       -24.0299
  16   2.0000      -0.820828       -22.3359
  17   2.0000      -0.753190       -20.4953
  18   2.0000      -0.724611       -19.7177
  19   2.0000      -0.703427       -19.1412
  20   2.0000      -0.671310       -18.2673
  21   2.0000      -0.670122       -18.2349
  22   2.0000      -0.646794       -17.6001
  23   2.0000      -0.630370       -17.1532
  24   2.0000      -0.599284       -16.3074
  25   2.0000      -0.571732       -15.5576
  26   2.0000      -0.552684       -15.0393
  27   2.0000      -0.536129       -14.5888
  28   2.0000      -0.509077       -13.8527
  29   2.0000      -0.488478       -13.2922
  30   2.0000      -0.478109       -13.0100
  31   2.0000      -0.457570       -12.4511
  32   2.0000      -0.424692       -11.5565
  33   2.0000      -0.406635       -11.0651
  34   0.0000       0.115735         3.1493
  35   0.0000       0.144366         3.9284
  36   0.0000       0.154860         4.2140
  37   0.0000       0.166145         4.5210
  38   0.0000       0.179437         4.8827

MULLIKEN ATOMIC CHARGES
-----------------------
   0 O :   -0.451457
   1 C :    0.066052
   2 C :   -0.286564
   3 C :    0.244519
   4 O :   -0.281471
   5 O :   -0.201639
   6 C :    0.016740
   7 C :   -0.274174
   8 C :   -0.124887
   9 H :    0.319843
  10 H :    0.108719
  11 H :    0.140206
  12 H :    0.149811
  13 H :    0.128391
  14 H :    0.137391
  15 H :    0.168286
  16 H :    0.140234
Sum of atomic charges:   -0.0000000

LOEWDIN ATOMIC CHARGES
----------------------
   0 O :   -0.002396
   1 C :   -0.323858
   2 C :   -0.219357
   3 C :   -0.467097
   4 O :    0.138907
   5 O :    0.295833
   6 C :   -0.257482
   7 C :   -0.188460
   8 C :   -0.187101
   9 H :    0.179855
  10 H :    0.139603
  11 H :    0.161097
  12 H :    0.151509
  13 H :    0.139995
  14 H :    0.136665
  15 H :    0.150212
  16 H :    0.152076

  Mayer bond orders larger than 0.1
B(  0-O ,  1-C ) :   0.9931 B(  0-O ,  9-H ) :   0.8377 B(  1-C ,  2-C ) :   0.9089
B(  1-C ,  8-C ) :   0.8791 B(  1-C , 10-H ) :   0.9332 B(  2-C ,  3-C ) :   0.9446
B(  2-C , 11-H ) :   0.9001 B(  2-C , 12-H ) :   0.9214 B(  3-C ,  4-O ) :   2.0387
B(  3-C ,  5-O ) :   1.0975 B(  5-O ,  6-C ) :   0.9156 B(  6-C ,  7-C ) :   0.9041
B(  6-C ,  8-C ) :   0.8828 B(  6-C , 13-H ) :   0.9486 B(  7-C ,  8-C ) :   0.8967
B(  7-C , 14-H ) :   0.9232 B(  7-C , 15-H ) :   0.9037 B(  8-C , 16-H ) :   0.9146

MP2 TOTAL ENERGY:     -458.248989124 Eh
FINAL SINGLE POINT ENERGY      -458.248989123967

DIPOLE MOMENT
-------------
                                X             Y             Z
Electronic contribution:      1.06731       0.82266       5.17444
Nuclear contribution   :     -0.97778      -1.49985      -6.77644
                        -----------------------------------------
Total Dipole Moment    :      0.08952      -0.67720      -1.60200
                        -----------------------------------------
Magnitude (a.u.)       :      1.74155
Magnitude (Debye)      :      4.42668

                             ****ORCA TERMINATED NORMALLY****
TOTAL RUN TIME: 0 days 0 hours 16 minutes 36 seconds 709 msec
