                         Program Version 3.0.3 - RELEASE   -
|  1> ! RI-MP2 RIJK def2-TZVP def2-TZVP/C def2-TZVP/JK TIGHTSCF
|  2> % maxcore 2000
|  3> % mp2 density relaxed end
|  4> *xyz 0 1
|  5>  N       -0.0405053624     1.2402510915     0.3488286641
|  6>  C       -0.0082072460     0.0071368210    -0.2331543249
|  7>  O        1.0026393215    -0.4474898772    -0.7437322637
|  8>  C       -1.2918623793    -0.7595856063    -0.1837118278
|  9>  C       -1.5614623288    -1.7211295495    -1.3336564330
| 10>  C       -1.1915266463    -2.2580171171    -0.0029838588
| 11>  C        0.0244138201    -3.0808837893     0.4069937349
| 12>  O       -0.8026872772    -3.8821117999     1.2897185220
| 13>  C       -1.9906737523    -3.1424765028     0.9481412534
| 14>  H        0.7961370797     1.7994777046     0.3253182594
| 15>  H       -0.8791782163     1.6354131922     0.7345477839
| 16>  H       -2.1496325279    -0.2698617712     0.2690247632
| 17>  H       -2.5881110739    -1.8197631987    -1.6710297329
| 18>  H       -0.8026446417    -1.7443386158    -2.1086526786
| 19>  H        0.4788527064    -3.6820516567    -0.3890293229
| 20>  H        0.8113579904    -2.5460354634     0.9474694313
| 21>  H       -2.4312226587    -2.6392301504     1.8199379188
| 22>  H       -2.7543245270    -3.7770164912     0.4777452414
| 23> *
| 24>
| 25>                          ****END OF INPUT****

CARTESIAN COORDINATES (ANGSTROEM)
---------------------------------
  N     -0.040505    1.240251    0.348829
  C     -0.008207    0.007137   -0.233154
  O      1.002639   -0.447490   -0.743732
  C     -1.291862   -0.759586   -0.183712
  C     -1.561462   -1.721130   -1.333656
  C     -1.191527   -2.258017   -0.002984
  C      0.024414   -3.080884    0.406994
  O     -0.802687   -3.882112    1.289719
  C     -1.990674   -3.142477    0.948141
  H      0.796137    1.799478    0.325318
  H     -0.879178    1.635413    0.734548
  H     -2.149633   -0.269862    0.269025
  H     -2.588111   -1.819763   -1.671030
  H     -0.802645   -1.744339   -2.108653
  H      0.478853   -3.682052   -0.389029
  H      0.811358   -2.546035    0.947469
  H     -2.431223   -2.639230    1.819938
  H     -2.754325   -3.777016    0.477745

 Total Charge           Charge          ....    0
 Multiplicity           Mult            ....    1
 Number of Electrons    NEL             ....   68
 Basis Dimension        Dim             ....  333

ORBITAL ENERGIES
----------------

  NO   OCC          E(Eh)            E(eV)
   0   2.0000     -20.546093      -559.0876
   1   2.0000     -20.517516      -558.3100
   2   2.0000     -15.589059      -424.1999
   3   2.0000     -11.357734      -309.0596
   4   2.0000     -11.283324      -307.0349
   5   2.0000     -11.274579      -306.7969
   6   2.0000     -11.255370      -306.2742
   7   2.0000     -11.253746      -306.2300
   8   2.0000     -11.243947      -305.9633
   9   2.0000      -1.384760       -37.6812
  10   2.0000      -1.375522       -37.4299
  11   2.0000      -1.216269       -33.0964
  12   2.0000      -1.162342       -31.6289
  13   2.0000      -0.949944       -25.8493
  14   2.0000      -0.936289       -25.4777
  15   2.0000      -0.897315       -24.4172
  16   2.0000      -0.790903       -21.5216
  17   2.0000      -0.752119       -20.4662
  18   2.0000      -0.719608       -19.5815
  19   2.0000      -0.701499       -19.0888
  20   2.0000      -0.671212       -18.2646
  21   2.0000      -0.664270       -18.0757
  22   2.0000      -0.626161       -17.0387
  23   2.0000      -0.590657       -16.0726
  24   2.0000      -0.579949       -15.7812
  25   2.0000      -0.564054       -15.3487
  26   2.0000      -0.546892       -14.8817
  27   2.0000      -0.527205       -14.3460
  28   2.0000      -0.471015       -12.8170
  29   2.0000      -0.458831       -12.4854
  30   2.0000      -0.432737       -11.7754
  31   2.0000      -0.422246       -11.4899
  32   2.0000      -0.416862       -11.3434
  33   2.0000      -0.396066       -10.7775
  34   0.0000       0.120716         3.2848
  35   0.0000       0.148703         4.0464
  36   0.0000       0.160034         4.3548
  37   0.0000       0.164374         4.4729
  38   0.0000       0.178752         4.8641

MULLIKEN ATOMIC CHARGES
-----------------------
   0 N :   -0.470340
   1 C :    0.248964
   2 O :   -0.374915
   3 C :   -0.099431
   4 C :   -0.281676
   5 C :   -0.049267
   6 C :    0.012683
   7 O :   -0.330046
   8 C :    0.005869
   9 H :    0.261409
  10 H :    0.258253
  11 H :    0.124331
  12 H :    0.140048
  13 H :    0.157786
  14 H :    0.100174
  15 H :    0.112572
  16 H :    0.088717
  17 H :    0.094870
Sum of atomic charges:   -0.0000000

LOEWDIN ATOMIC CHARGES
----------------------
   0 N :   -0.011511
   1 C :   -0.465314
   2 O :    0.081832
   3 C :   -0.162484
   4 C :   -0.165366
   5 C :   -0.210703
   6 C :   -0.216946
   7 O :    0.113147
   8 C :   -0.232000
   9 H :    0.174482
  10 H :    0.169775
  11 H :    0.149613
  12 H :    0.138177
  13 H :    0.149735
  14 H :    0.123896
  15 H :    0.125204
  16 H :    0.118580
  17 H :    0.119883

  Mayer bond orders larger than 0.1
B(  0-N ,  1-C ) :   1.1610 B(  0-N ,  9-H ) :   0.8547 B(  0-N , 10-H ) :   0.8722
B(  1-C ,  2-O ) :   1.9414 B(  1-C ,  3-C ) :   0.9053 B(  3-C ,  4-C ) :   0.8956
B(  3-C ,  5-C ) :   0.8056 B(  3-C , 11-H ) :   0.8934 B(  4-C ,  5-C ) :   0.8802
B(  4-C , 12-H ) :   0.9202 B(  4-C , 13-H ) :   0.9103 B(  5-C ,  6-C ) :   0.9870
B(  5-C ,  8-C ) :   0.9740 B(  6-C ,  7-O ) :   0.9433 B(  6-C , 14-H ) :   0.9133
B(  6-C , 15-H ) :   0.9071 B(  7-O ,  8-C ) :   0.9789 B(  8-C , 16-H ) :   0.9005
B(  8-C , 17-H ) :   0.9103

MP2 TOTAL ENERGY:     -438.358208608 Eh
FINAL SINGLE POINT ENERGY      -438.358208607944

DIPOLE MOMENT
-------------
                                X             Y             Z
Electronic contribution:      2.53522       0.48593       0.35017
Nuclear contribution   :     -3.64192       0.81793      -0.22625
                        -----------------------------------------
Total Dipole Moment    :     -1.10670       1.30386       0.12392
                        -----------------------------------------
Magnitude (a.u.)       :      1.71469
Magnitude (Debye)      :      4.35841

                             ****ORCA TERMINATED NORMALLY****
TOTAL RUN TIME: 0 days 0 hours 17 minutes 56 seconds 150 msec
