                         Program Version 3.0.3 - RELEASE   -
|  1> ! RI-MP2 RIJK def2-TZVP def2-TZVP/C def2-TZVP/JK TIGHTSCF
|  2> % maxcore 2000
|  3> % mp2 density relaxed end
|  4> *xyz 0 1
|  5>  C        0.1366611236     1.4881008225     0.1522471146
|  6>  C       -0.0636671716    -0.0289219479    -0.0270483273
|  7>  C       -1.5593909074    -0.3873758077    -0.1163816099
|  8>  C        0.7123612485    -0.5625860494    -1.1987086437
|  9>  C        1.7402780917    -1.4837214442    -1.2745262925
| 10>  C        2.0569776816    -1.5719373308    -2.6470497728
| 11>  N        1.2940809527    -0.7720707955    -3.3844861298
| 12>  N        0.4881281997    -0.1721394178    -2.4829050684
| 13>  H        1.1969393237     1.7378877572     0.2473817207
| 14>  H       -0.2624268038     2.0467780848    -0.7020397041
| 15>  H       -0.3833372550     1.8418180397     1.0482315684
| 16>  H        0.3472081023    -0.5273278660     0.8583884281
| 17>  H       -2.0336550423     0.0918286678    -0.9804619851
| 18>  H       -1.7014583408    -1.4670789773    -0.2148285891
| 19>  H       -2.0902983569    -0.0495017170     0.7793238058
| 20>  H        2.1906063118    -2.0121224757    -0.4494150472
| 21>  H        2.8078053081    -2.1835832712    -3.1259148269
| 22>  H       -0.1910464758     0.4921150987    -2.8128918111
| 23> *
| 24>
| 25>                          ****END OF INPUT****

CARTESIAN COORDINATES (ANGSTROEM)
---------------------------------
  C      0.136661    1.488101    0.152247
  C     -0.063667   -0.028922   -0.027048
  C     -1.559391   -0.387376   -0.116382
  C      0.712361   -0.562586   -1.198709
  C      1.740278   -1.483721   -1.274526
  C      2.056978   -1.571937   -2.647050
  N      1.294081   -0.772071   -3.384486
  N      0.488128   -0.172139   -2.482905
  H      1.196939    1.737888    0.247382
  H     -0.262427    2.046778   -0.702040
  H     -0.383337    1.841818    1.048232
  H      0.347208   -0.527328    0.858388
  H     -2.033655    0.091829   -0.980462
  H     -1.701458   -1.467079   -0.214829
  H     -2.090298   -0.049502    0.779324
  H      2.190606   -2.012122   -0.449415
  H      2.807805   -2.183583   -3.125915
  H     -0.191046    0.492115   -2.812892

 Total Charge           Charge          ....    0
 Multiplicity           Mult            ....    1
 Number of Electrons    NEL             ....   60
 Basis Dimension        Dim             ....  308

ORBITAL ENERGIES
----------------

  NO   OCC          E(Eh)            E(eV)
   0   2.0000     -15.625908      -425.2026
   1   2.0000     -15.576352      -423.8541
   2   2.0000     -11.273204      -306.7595
   3   2.0000     -11.253552      -306.2247
   4   2.0000     -11.244747      -305.9851
   5   2.0000     -11.228854      -305.5526
   6   2.0000     -11.228824      -305.5518
   7   2.0000     -11.210142      -305.0435
   8   2.0000      -1.364109       -37.1193
   9   2.0000      -1.119817       -30.4718
  10   2.0000      -1.069578       -29.1047
  11   2.0000      -1.025209       -27.8974
  12   2.0000      -0.943689       -25.6791
  13   2.0000      -0.850137       -23.1334
  14   2.0000      -0.800664       -21.7872
  15   2.0000      -0.792800       -21.5732
  16   2.0000      -0.686369       -18.6771
  17   2.0000      -0.630032       -17.1440
  18   2.0000      -0.611264       -16.6333
  19   2.0000      -0.605976       -16.4894
  20   2.0000      -0.593250       -16.1432
  21   2.0000      -0.571277       -15.5452
  22   2.0000      -0.566493       -15.4151
  23   2.0000      -0.547505       -14.8984
  24   2.0000      -0.502013       -13.6605
  25   2.0000      -0.495753       -13.4901
  26   2.0000      -0.491878       -13.3847
  27   2.0000      -0.446701       -12.1553
  28   2.0000      -0.358235        -9.7481
  29   2.0000      -0.331321        -9.0157
  30   0.0000       0.121507         3.3064
  31   0.0000       0.152706         4.1553
  32   0.0000       0.157640         4.2896
  33   0.0000       0.172245         4.6870
  34   0.0000       0.179736         4.8909

MULLIKEN ATOMIC CHARGES
-----------------------
   0 C :   -0.390863
   1 C :   -0.086804
   2 C :   -0.390770
   3 C :    0.119692
   4 C :   -0.194973
   5 C :   -0.105453
   6 N :   -0.232815
   7 N :   -0.116762
   8 H :    0.146433
   9 H :    0.109724
  10 H :    0.133772
  11 H :    0.099529
  12 H :    0.109845
  13 H :    0.146414
  14 H :    0.133740
  15 H :    0.137686
  16 H :    0.130626
  17 H :    0.250980
Sum of atomic charges:    0.0000000

LOEWDIN ATOMIC CHARGES
----------------------
   0 C :   -0.285076
   1 C :   -0.275615
   2 C :   -0.285086
   3 C :   -0.221852
   4 C :   -0.186755
   5 C :   -0.281689
   6 N :    0.017756
   7 N :    0.151491
   8 H :    0.127987
   9 H :    0.119232
  10 H :    0.124213
  11 H :    0.163161
  12 H :    0.119277
  13 H :    0.127987
  14 H :    0.124201
  15 H :    0.141455
  16 H :    0.132137
  17 H :    0.187177

  Mayer bond orders larger than 0.1
B(  0-C ,  1-C ) :   0.9353 B(  0-C ,  8-H ) :   0.9382 B(  0-C ,  9-H ) :   0.9264
B(  0-C , 10-H ) :   0.9369 B(  1-C ,  2-C ) :   0.9353 B(  1-C ,  3-C ) :   0.9004
B(  1-C , 11-H ) :   0.9353 B(  2-C , 12-H ) :   0.9264 B(  2-C , 13-H ) :   0.9382
B(  2-C , 14-H ) :   0.9369 B(  3-C ,  4-C ) :   1.4090 B(  3-C ,  6-N ) :   0.1069
B(  3-C ,  7-N ) :   1.1759 B(  4-C ,  5-C ) :   1.3046 B(  4-C , 15-H ) :   0.9211
B(  5-C ,  6-N ) :   1.5391 B(  5-C , 16-H ) :   0.9395 B(  6-N ,  7-N ) :   1.0595
B(  7-N , 17-H ) :   0.8700

MP2 TOTAL ENERGY:     -343.409633063 Eh
FINAL SINGLE POINT ENERGY      -343.409633062609

DIPOLE MOMENT
-------------
                                X             Y             Z
Electronic contribution:      4.77156      -3.34243      -6.74347
Nuclear contribution   :     -5.31680       3.70545       7.64856
                        -----------------------------------------
Total Dipole Moment    :     -0.54524       0.36302       0.90509
                        -----------------------------------------
Magnitude (a.u.)       :      1.11726
Magnitude (Debye)      :      2.83984

                             ****ORCA TERMINATED NORMALLY****
TOTAL RUN TIME: 0 days 0 hours 13 minutes 7 seconds 129 msec
