                         Program Version 3.0.3 - RELEASE   -
|  1> ! RI-MP2 RIJK def2-TZVP def2-TZVP/C def2-TZVP/JK TIGHTSCF
|  2> % maxcore 2000
|  3> % mp2 density relaxed end
|  4> *xyz 0 1
|  5>  C       -0.0111951025     1.5221483232    -0.0389622169
|  6>  C        0.2148328430     0.0097500360     0.0168172703
|  7>  C        0.4268703062    -0.6036877275    -1.3756548195
|  8>  C        0.6886493778    -2.0904855723    -1.3289239974
|  9>  C        1.7542068645    -2.7269061216    -2.1394500110
| 10>  O        1.9355739644    -2.5250350948    -0.7495778344
| 11>  C       -0.4482742300    -2.9970550069    -0.9598383461
| 12>  O       -1.6051227514    -2.6630187572    -0.9341577214
| 13>  H        0.8453841003     2.0365240884    -0.4891501846
| 14>  H       -0.8967374910     1.7691045827    -0.6348854046
| 15>  H       -0.1585101965     1.9366999037     0.9628587854
| 16>  H        1.0905082840    -0.2145333163     0.6370551630
| 17>  H       -0.6443038887    -0.4739490763     0.4942260063
| 18>  H       -0.4625823387    -0.4363388290    -1.9940846212
| 19>  H        1.2691850914    -0.1103894079    -1.8735851758
| 20>  H        1.6622635076    -3.7654701600    -2.4568063643
| 21>  H        2.3390296227    -2.0861349511    -2.7976068050
| 22>  H       -0.1190847931    -4.0299264131    -0.7072077930
| 23> *
| 24>
| 25>                          ****END OF INPUT****

CARTESIAN COORDINATES (ANGSTROEM)
---------------------------------
  C     -0.011195    1.522148   -0.038962
  C      0.214833    0.009750    0.016817
  C      0.426870   -0.603688   -1.375655
  C      0.688649   -2.090486   -1.328924
  C      1.754207   -2.726906   -2.139450
  O      1.935574   -2.525035   -0.749578
  C     -0.448274   -2.997055   -0.959838
  O     -1.605123   -2.663019   -0.934158
  H      0.845384    2.036524   -0.489150
  H     -0.896737    1.769105   -0.634885
  H     -0.158510    1.936700    0.962859
  H      1.090508   -0.214533    0.637055
  H     -0.644304   -0.473949    0.494226
  H     -0.462582   -0.436339   -1.994085
  H      1.269185   -0.110389   -1.873585
  H      1.662264   -3.765470   -2.456806
  H      2.339030   -2.086135   -2.797607
  H     -0.119085   -4.029926   -0.707208

 Total Charge           Charge          ....    0
 Multiplicity           Mult            ....    1
 Number of Electrons    NEL             ....   62
 Basis Dimension        Dim             ....  308

ORBITAL ENERGIES
----------------

  NO   OCC          E(Eh)            E(eV)
   0   2.0000     -20.593106      -560.3669
   1   2.0000     -20.568575      -559.6994
   2   2.0000     -11.341901      -308.6288
   3   2.0000     -11.310426      -307.7723
   4   2.0000     -11.307515      -307.6931
   5   2.0000     -11.236487      -305.7604
   6   2.0000     -11.222981      -305.3928
   7   2.0000     -11.215251      -305.1825
   8   2.0000      -1.439575       -39.1728
   9   2.0000      -1.405237       -38.2384
  10   2.0000      -1.079945       -29.3868
  11   2.0000      -1.000051       -27.2128
  12   2.0000      -0.930862       -25.3300
  13   2.0000      -0.907725       -24.7004
  14   2.0000      -0.823026       -22.3957
  15   2.0000      -0.766804       -20.8658
  16   2.0000      -0.711523       -19.3615
  17   2.0000      -0.693369       -18.8675
  18   2.0000      -0.648856       -17.6563
  19   2.0000      -0.630008       -17.1434
  20   2.0000      -0.597355       -16.2548
  21   2.0000      -0.588576       -16.0160
  22   2.0000      -0.561609       -15.2822
  23   2.0000      -0.551055       -14.9950
  24   2.0000      -0.535213       -14.5639
  25   2.0000      -0.505143       -13.7456
  26   2.0000      -0.494709       -13.4617
  27   2.0000      -0.482846       -13.1389
  28   2.0000      -0.475598       -12.9417
  29   2.0000      -0.440012       -11.9733
  30   2.0000      -0.424420       -11.5491
  31   0.0000       0.114003         3.1022
  32   0.0000       0.141636         3.8541
  33   0.0000       0.159544         4.3414
  34   0.0000       0.170218         4.6319
  35   0.0000       0.177738         4.8365

MULLIKEN ATOMIC CHARGES
-----------------------
   0 C :   -0.392067
   1 C :   -0.235839
   2 C :   -0.216612
   3 C :    0.225067
   4 C :   -0.080123
   5 O :   -0.327466
   6 C :    0.051583
   7 O :   -0.265734
   8 H :    0.122434
   9 H :    0.125702
  10 H :    0.136404
  11 H :    0.125313
  12 H :    0.129715
  13 H :    0.127247
  14 H :    0.118896
  15 H :    0.127150
  16 H :    0.128156
  17 H :    0.100175
Sum of atomic charges:    0.0000000

LOEWDIN ATOMIC CHARGES
----------------------
   0 C :   -0.318934
   1 C :   -0.284675
   2 C :   -0.223669
   3 C :   -0.317473
   4 C :   -0.239561
   5 O :    0.182249
   6 C :   -0.260603
   7 O :    0.144772
   8 H :    0.120083
   9 H :    0.121613
  10 H :    0.122260
  11 H :    0.139385
  12 H :    0.140383
  13 H :    0.154164
  14 H :    0.146718
  15 H :    0.123737
  16 H :    0.126586
  17 H :    0.122965

  Mayer bond orders larger than 0.1
B(  0-C ,  1-C ) :   0.9163 B(  0-C ,  8-H ) :   0.9404 B(  0-C ,  9-H ) :   0.9383
B(  0-C , 10-H ) :   0.9435 B(  1-C ,  2-C ) :   0.9274 B(  1-C , 11-H ) :   0.9347
B(  1-C , 12-H ) :   0.9287 B(  2-C ,  3-C ) :   0.9070 B(  2-C , 13-H ) :   0.9131
B(  2-C , 14-H ) :   0.9326 B(  3-C ,  4-C ) :   0.9343 B(  3-C ,  5-O ) :   0.8220
B(  3-C ,  6-C ) :   0.8502 B(  4-C ,  5-O ) :   0.9073 B(  4-C , 15-H ) :   0.9163
B(  4-C , 16-H ) :   0.8975 B(  6-C ,  7-O ) :   1.9904 B(  6-C , 17-H ) :   0.9504

MP2 TOTAL ENERGY:     -384.294236651 Eh
FINAL SINGLE POINT ENERGY      -384.294236650592

DIPOLE MOMENT
-------------
                                X             Y             Z
Electronic contribution:     -0.60636      -8.91776      -1.00414
Nuclear contribution   :      1.18061       8.99118       0.39065
                        -----------------------------------------
Total Dipole Moment    :      0.57425       0.07343      -0.61349
                        -----------------------------------------
Magnitude (a.u.)       :      0.84352
Magnitude (Debye)      :      2.14406

                             ****ORCA TERMINATED NORMALLY****
TOTAL RUN TIME: 0 days 0 hours 12 minutes 39 seconds 198 msec
