                         Program Version 3.0.3 - RELEASE   -
|  1> ! RI-MP2 RIJK def2-TZVP def2-TZVP/C def2-TZVP/JK TIGHTSCF
|  2> % maxcore 2000
|  3> % mp2 density relaxed end
|  4> *xyz 0 1
|  5>  C        0.0871642683     1.4398856916    -0.0015277417
|  6>  O        0.0595157577     0.0122175184     0.0286498469
|  7>  C        0.5887944473    -0.6074049668    -1.0354972532
|  8>  C        0.6834144787    -1.9537119268    -1.2474487457
|  9>  C        0.2756014879    -3.1399218375    -0.4568336061
| 10>  O        1.2805854635    -2.1115155289    -2.4384678744
| 11>  N        1.5520567460    -0.8284506785    -2.9561564635
| 12>  N        1.1370416116     0.0266065367    -2.1153179608
| 13>  H        1.1150216704     1.8121777499    -0.0582428979
| 14>  H       -0.4759101601     1.8260841215    -0.8571660655
| 15>  H       -0.3778034395     1.7635291712     0.9300036316
| 16>  H       -0.4427771969    -3.7564565333    -1.0072239765
| 17>  H        1.1371411505    -3.7704477919    -0.2133088221
| 18>  H       -0.1894144555    -2.8102648057     0.4743935089
| 19> *
| 20>
| 21>                          ****END OF INPUT****

CARTESIAN COORDINATES (ANGSTROEM)
---------------------------------
  C      0.087164    1.439886   -0.001528
  O      0.059516    0.012218    0.028650
  C      0.588794   -0.607405   -1.035497
  C      0.683414   -1.953712   -1.247449
  C      0.275601   -3.139922   -0.456834
  O      1.280585   -2.111516   -2.438468
  N      1.552057   -0.828451   -2.956156
  N      1.137042    0.026607   -2.115318
  H      1.115022    1.812178   -0.058243
  H     -0.475910    1.826084   -0.857166
  H     -0.377803    1.763529    0.930004
  H     -0.442777   -3.756457   -1.007224
  H      1.137141   -3.770448   -0.213309
  H     -0.189414   -2.810265    0.474394

 Total Charge           Charge          ....    0
 Multiplicity           Mult            ....    1
 Number of Electrons    NEL             ....   60
 Basis Dimension        Dim             ....  284

ORBITAL ENERGIES
----------------

  NO   OCC          E(Eh)            E(eV)
   0   2.0000     -20.659075      -562.1620
   1   2.0000     -20.600594      -560.5707
   2   2.0000     -15.686734      -426.8577
   3   2.0000     -15.633287      -425.4034
   4   2.0000     -11.325112      -308.1720
   5   2.0000     -11.317977      -307.9778
   6   2.0000     -11.292320      -307.2797
   7   2.0000     -11.253608      -306.2263
   8   2.0000      -1.530385       -41.6439
   9   2.0000      -1.431097       -38.9421
  10   2.0000      -1.304983       -35.5104
  11   2.0000      -1.106708       -30.1150
  12   2.0000      -1.000352       -27.2210
  13   2.0000      -0.964419       -26.2432
  14   2.0000      -0.861966       -23.4553
  15   2.0000      -0.829394       -22.5690
  16   2.0000      -0.736338       -20.0368
  17   2.0000      -0.701452       -19.0875
  18   2.0000      -0.661017       -17.9872
  19   2.0000      -0.654364       -17.8061
  20   2.0000      -0.641979       -17.4691
  21   2.0000      -0.589173       -16.0322
  22   2.0000      -0.588369       -16.0103
  23   2.0000      -0.563824       -15.3424
  24   2.0000      -0.543538       -14.7904
  25   2.0000      -0.537051       -14.6139
  26   2.0000      -0.523226       -14.2377
  27   2.0000      -0.476960       -12.9787
  28   2.0000      -0.466503       -12.6942
  29   2.0000      -0.337185        -9.1753
  30   0.0000       0.099960         2.7200
  31   0.0000       0.138033         3.7561
  32   0.0000       0.153922         4.1884
  33   0.0000       0.199451         5.4273
  34   0.0000       0.204741         5.5713

MULLIKEN ATOMIC CHARGES
-----------------------
   0 C :   -0.208452
   1 O :   -0.302898
   2 C :    0.188500
   3 C :    0.114247
   4 C :   -0.407923
   5 O :   -0.091283
   6 N :   -0.067514
   7 N :   -0.133853
   8 H :    0.139491
   9 H :    0.139471
  10 H :    0.147888
  11 H :    0.158520
  12 H :    0.158519
  13 H :    0.165287
Sum of atomic charges:    0.0000000

LOEWDIN ATOMIC CHARGES
----------------------
   0 C :   -0.310381
   1 O :    0.224925
   2 C :   -0.382728
   3 C :   -0.299270
   4 C :   -0.266690
   5 O :    0.280929
   6 N :   -0.038664
   7 N :    0.023256
   8 H :    0.113363
   9 H :    0.113359
  10 H :    0.116089
  11 H :    0.140360
  12 H :    0.140362
  13 H :    0.145090

  Mayer bond orders larger than 0.1
B(  0-C ,  1-O ) :   0.8470 B(  0-C ,  8-H ) :   0.9357 B(  0-C ,  9-H ) :   0.9357
B(  0-C , 10-H ) :   0.9348 B(  1-O ,  2-C ) :   1.1039 B(  2-C ,  3-C ) :   1.4323
B(  2-C ,  7-N ) :   1.2592 B(  3-C ,  4-C ) :   0.8782 B(  3-C ,  5-O ) :   1.1307
B(  3-C ,  6-N ) :   0.1316 B(  4-C , 11-H ) :   0.9274 B(  4-C , 12-H ) :   0.9274
B(  4-C , 13-H ) :   0.9385 B(  5-O ,  6-N ) :   0.8846 B(  6-N ,  7-N ) :   1.3423

MP2 TOTAL ENERGY:     -415.159992610 Eh
FINAL SINGLE POINT ENERGY      -415.159992609840

DIPOLE MOMENT
-------------
                                X             Y             Z
Electronic contribution:      2.62410      -0.52404      -5.23022
Nuclear contribution   :     -3.19754       0.35151       6.36819
                        -----------------------------------------
Total Dipole Moment    :     -0.57345      -0.17253       1.13796
                        -----------------------------------------
Magnitude (a.u.)       :      1.28591
Magnitude (Debye)      :      3.26853

                             ****ORCA TERMINATED NORMALLY****
TOTAL RUN TIME: 0 days 0 hours 10 minutes 39 seconds 844 msec
