                         Program Version 3.0.3 - RELEASE   -
|  1> ! RI-MP2 RIJK def2-TZVP def2-TZVP/C def2-TZVP/JK TIGHTSCF
|  2> % maxcore 2000
|  3> % mp2 density relaxed end
|  4> *xyz 0 1
|  5>  C       -0.0768609706     1.5118430802    -0.0038087602
|  6>  C        1.4310466566     1.8683367886    -0.0200194509
|  7>  O        2.1749001822     1.4329932222     1.1133100587
|  8>  C        2.2653323524     0.6407550897    -0.0951659718
|  9>  C        1.2858017515    -0.4720849022    -0.1069440792
| 10>  C        0.0326762410     0.0232146987    -0.0405687849
| 11>  O       -0.8382728087    -1.0098277617     0.0760407240
| 12>  C       -0.0169411714    -2.1085230734     0.0430130210
| 13>  N        1.2508795725    -1.8553466214    -0.0580670642
| 14>  H       -0.5634328269     1.8940817529     0.9000359517
| 15>  H       -0.5935793665     1.9400409772    -0.8707256477
| 16>  H        1.7401192158     2.8187125994    -0.4464326915
| 17>  H        3.2443732570     0.5995504507    -0.5591142790
| 18>  H       -0.5075084849    -3.0674054708     0.0936828041
| 19> *
| 20>
| 21>                          ****END OF INPUT****

CARTESIAN COORDINATES (ANGSTROEM)
---------------------------------
  C     -0.076861    1.511843   -0.003809
  C      1.431047    1.868337   -0.020019
  O      2.174900    1.432993    1.113310
  C      2.265332    0.640755   -0.095166
  C      1.285802   -0.472085   -0.106944
  C      0.032676    0.023215   -0.040569
  O     -0.838273   -1.009828    0.076041
  C     -0.016941   -2.108523    0.043013
  N      1.250880   -1.855347   -0.058067
  H     -0.563433    1.894082    0.900036
  H     -0.593579    1.940041   -0.870726
  H      1.740119    2.818713   -0.446433
  H      3.244373    0.599550   -0.559114
  H     -0.507508   -3.067405    0.093683

 Total Charge           Charge          ....    0
 Multiplicity           Mult            ....    1
 Number of Electrons    NEL             ....   64
 Basis Dimension        Dim             ....  309

ORBITAL ENERGIES
----------------

  NO   OCC          E(Eh)            E(eV)
   0   2.0000     -20.648560      -561.8759
   1   2.0000     -20.576358      -559.9112
   2   2.0000     -15.578392      -423.9096
   3   2.0000     -11.341276      -308.6118
   4   2.0000     -11.304830      -307.6201
   5   2.0000     -11.303954      -307.5962
   6   2.0000     -11.295742      -307.3728
   7   2.0000     -11.264454      -306.5214
   8   2.0000     -11.257350      -306.3281
   9   2.0000      -1.491910       -40.5969
  10   2.0000      -1.421571       -38.6829
  11   2.0000      -1.243220       -33.8297
  12   2.0000      -1.113715       -30.3057
  13   2.0000      -0.989411       -26.9232
  14   2.0000      -0.938122       -25.5276
  15   2.0000      -0.848986       -23.1021
  16   2.0000      -0.822614       -22.3845
  17   2.0000      -0.789389       -21.4804
  18   2.0000      -0.728311       -19.8183
  19   2.0000      -0.690755       -18.7964
  20   2.0000      -0.669348       -18.2139
  21   2.0000      -0.635182       -17.2842
  22   2.0000      -0.621779       -16.9195
  23   2.0000      -0.605351       -16.4724
  24   2.0000      -0.567556       -15.4440
  25   2.0000      -0.551516       -15.0075
  26   2.0000      -0.535495       -14.5716
  27   2.0000      -0.483258       -13.1501
  28   2.0000      -0.465863       -12.6768
  29   2.0000      -0.450731       -12.2650
  30   2.0000      -0.434634       -11.8270
  31   2.0000      -0.330822        -9.0021
  32   0.0000       0.127455         3.4682
  33   0.0000       0.143671         3.9095
  34   0.0000       0.169946         4.6245
  35   0.0000       0.172670         4.6986
  36   0.0000       0.175630         4.7791

MULLIKEN ATOMIC CHARGES
-----------------------
   0 C :   -0.157667
   1 C :    0.032106
   2 O :   -0.308633
   3 C :   -0.050160
   4 C :    0.053158
   5 C :    0.082018
   6 O :   -0.210888
   7 C :    0.112977
   8 N :   -0.261012
   9 H :    0.142424
  10 H :    0.135500
  11 H :    0.131019
  12 H :    0.140645
  13 H :    0.158513
Sum of atomic charges:    0.0000000

LOEWDIN ATOMIC CHARGES
----------------------
   0 C :   -0.189557
   1 C :   -0.230054
   2 O :    0.174018
   3 C :   -0.202336
   4 C :   -0.220034
   5 C :   -0.222640
   6 O :    0.348297
   7 C :   -0.299435
   8 N :    0.127693
   9 H :    0.155556
  10 H :    0.148828
  11 H :    0.135417
  12 H :    0.141414
  13 H :    0.132834

  Mayer bond orders larger than 0.1
B(  0-C ,  1-C ) :   0.9311 B(  0-C ,  5-C ) :   0.9594 B(  0-C ,  9-H ) :   0.8912
B(  0-C , 10-H ) :   0.9054 B(  1-C ,  2-O ) :   0.9461 B(  1-C ,  3-C ) :   0.9454
B(  1-C , 11-H ) :   0.9197 B(  2-O ,  3-C ) :   0.9339 B(  3-C ,  4-C ) :   0.9011
B(  3-C , 12-H ) :   0.9424 B(  4-C ,  5-C ) :   1.5030 B(  4-C ,  8-N ) :   1.2449
B(  5-C ,  6-O ) :   1.0532 B(  6-O ,  7-C ) :   1.0579 B(  7-C ,  8-N ) :   1.6314
B(  7-C , 13-H ) :   0.9289

MP2 TOTAL ENERGY:     -435.961548597 Eh
FINAL SINGLE POINT ENERGY      -435.961548596863

DIPOLE MOMENT
-------------
                                X             Y             Z
Electronic contribution:      0.07965      -3.27594       0.76434
Nuclear contribution   :     -0.74958       3.82327      -1.37276
                        -----------------------------------------
Total Dipole Moment    :     -0.66994       0.54733      -0.60842
                        -----------------------------------------
Magnitude (a.u.)       :      1.05762
Magnitude (Debye)      :      2.68826

                             ****ORCA TERMINATED NORMALLY****
TOTAL RUN TIME: 0 days 0 hours 15 minutes 1 seconds 414 msec
