                         Program Version 3.0.3 - RELEASE   -
|  1> ! RI-MP2 RIJK def2-TZVP def2-TZVP/C def2-TZVP/JK TIGHTSCF
|  2> % maxcore 2000
|  3> % mp2 density relaxed end
|  4> *xyz 0 1
|  5>  O       -0.1024652822     1.3585700604    -0.0534320850
|  6>  C        0.0159590024    -0.0422362176    -0.0108909013
|  7>  C       -0.4590998171    -0.7330211051     1.2644778741
|  8>  C       -1.3281269265    -0.7379506839     0.0312230927
|  9>  N       -2.4869373445     0.0898209295    -0.0534263903
| 10>  C       -3.7070084792    -0.4054380433    -0.3965861327
| 11>  O       -3.9600925721    -1.5787794143    -0.5674743624
| 12>  C        1.1029593823    -0.5987043024    -0.7697810575
| 13>  C        2.0312574784    -1.0512825418    -1.3860247449
| 14>  H        0.6592858033     1.7382303102     0.3983517755
| 15>  H        0.0235595620    -1.6574654030     1.5590067793
| 16>  H       -0.7487839238    -0.0686053402     2.0712567661
| 17>  H       -1.4438814660    -1.6694891170    -0.5076066051
| 18>  H       -2.3399862882     1.0875029182    -0.0209433254
| 19>  H       -4.4592603541     0.4012166048    -0.4976608677
| 20>  H        2.8408737453    -1.4535857145    -1.9434405355
| 21> *
| 22>
| 23>                          ****END OF INPUT****

CARTESIAN COORDINATES (ANGSTROEM)
---------------------------------
  O     -0.102465    1.358570   -0.053432
  C      0.015959   -0.042236   -0.010891
  C     -0.459100   -0.733021    1.264478
  C     -1.328127   -0.737951    0.031223
  N     -2.486937    0.089821   -0.053426
  C     -3.707008   -0.405438   -0.396586
  O     -3.960093   -1.578779   -0.567474
  C      1.102959   -0.598704   -0.769781
  C      2.031257   -1.051283   -1.386025
  H      0.659286    1.738230    0.398352
  H      0.023560   -1.657465    1.559007
  H     -0.748784   -0.068605    2.071257
  H     -1.443881   -1.669489   -0.507607
  H     -2.339986    1.087503   -0.020943
  H     -4.459260    0.401217   -0.497661
  H      2.840874   -1.453586   -1.943441

 Total Charge           Charge          ....    0
 Multiplicity           Mult            ....    1
 Number of Electrons    NEL             ....   66
 Basis Dimension        Dim             ....  321

ORBITAL ENERGIES
----------------

  NO   OCC          E(Eh)            E(eV)
   0   2.0000     -20.593842      -560.3869
   1   2.0000     -20.523528      -558.4736
   2   2.0000     -15.593795      -424.3287
   3   2.0000     -11.350682      -308.8678
   4   2.0000     -11.331077      -308.3343
   5   2.0000     -11.290416      -307.2278
   6   2.0000     -11.248899      -306.0981
   7   2.0000     -11.248002      -306.0737
   8   2.0000     -11.240487      -305.8692
   9   2.0000      -1.407045       -38.2876
  10   2.0000      -1.384242       -37.6672
  11   2.0000      -1.250898       -34.0387
  12   2.0000      -1.142370       -31.0855
  13   2.0000      -1.040283       -28.3075
  14   2.0000      -0.894220       -24.3330
  15   2.0000      -0.877924       -23.8895
  16   2.0000      -0.810444       -22.0533
  17   2.0000      -0.773028       -21.0352
  18   2.0000      -0.732448       -19.9309
  19   2.0000      -0.710755       -19.3406
  20   2.0000      -0.676034       -18.3958
  21   2.0000      -0.667492       -18.1634
  22   2.0000      -0.624282       -16.9876
  23   2.0000      -0.599692       -16.3184
  24   2.0000      -0.580596       -15.7988
  25   2.0000      -0.561968       -15.2919
  26   2.0000      -0.550737       -14.9863
  27   2.0000      -0.493950       -13.4411
  28   2.0000      -0.466890       -12.7047
  29   2.0000      -0.434674       -11.8281
  30   2.0000      -0.416500       -11.3335
  31   2.0000      -0.386817       -10.5258
  32   2.0000      -0.367383        -9.9970
  33   0.0000       0.125401         3.4123
  34   0.0000       0.150903         4.1063
  35   0.0000       0.156801         4.2668
  36   0.0000       0.159758         4.3472
  37   0.0000       0.162078         4.4104

MULLIKEN ATOMIC CHARGES
-----------------------
   0 O :   -0.483304
   1 C :    0.077475
   2 C :   -0.272168
   3 C :    0.019476
   4 N :   -0.328699
   5 C :    0.186662
   6 O :   -0.363904
   7 C :   -0.062157
   8 C :   -0.111830
   9 H :    0.336166
  10 H :    0.146201
  11 H :    0.143957
  12 H :    0.168730
  13 H :    0.261363
  14 H :    0.083870
  15 H :    0.198160
Sum of atomic charges:   -0.0000000

LOEWDIN ATOMIC CHARGES
----------------------
   0 O :    0.032015
   1 C :   -0.336852
   2 C :   -0.168253
   3 C :   -0.196562
   4 N :    0.114965
   5 C :   -0.429150
   6 O :    0.058100
   7 C :   -0.074700
   8 C :   -0.073315
   9 H :    0.190126
  10 H :    0.142796
  11 H :    0.141707
  12 H :    0.163814
  13 H :    0.194348
  14 H :    0.111114
  15 H :    0.129848

  Mayer bond orders larger than 0.1
B(  0-O ,  1-C ) :   0.9314 B(  0-O ,  9-H ) :   0.8328 B(  1-C ,  2-C ) :   0.8575
B(  1-C ,  3-C ) :   0.8460 B(  1-C ,  7-C ) :   1.2048 B(  1-C ,  8-C ) :  -0.1089
B(  2-C ,  3-C ) :   0.8773 B(  2-C , 10-H ) :   0.9159 B(  2-C , 11-H ) :   0.9227
B(  3-C ,  4-N ) :   0.8465 B(  3-C , 12-H ) :   0.9386 B(  4-N ,  5-C ) :   1.1476
B(  4-N , 13-H ) :   0.8532 B(  5-C ,  6-O ) :   1.8849 B(  5-C , 14-H ) :   0.9298
B(  7-C ,  8-C ) :   2.5810 B(  8-C , 15-H ) :   0.8908

MP2 TOTAL ENERGY:     -437.121934803 Eh
FINAL SINGLE POINT ENERGY      -437.121934802603

DIPOLE MOMENT
-------------
                                X             Y             Z
Electronic contribution:     -0.62260       0.06846      -1.70897
Nuclear contribution   :      1.84010       0.94278       2.29468
                        -----------------------------------------
Total Dipole Moment    :      1.21750       1.01124       0.58571
                        -----------------------------------------
Magnitude (a.u.)       :      1.68759
Magnitude (Debye)      :      4.28952

                             ****ORCA TERMINATED NORMALLY****
TOTAL RUN TIME: 0 days 0 hours 13 minutes 54 seconds 208 msec
