                         Program Version 3.0.3 - RELEASE   -
|  1> ! RI-MP2 RIJK def2-TZVP def2-TZVP/C def2-TZVP/JK TIGHTSCF
|  2> % maxcore 2000
|  3> % mp2 density relaxed end
|  4> *xyz 0 1
|  5>  C        0.0247581462     1.3994349010     0.0915632089
|  6>  O       -0.0220002651    -0.0130100680    -0.1090763898
|  7>  C       -1.2321671457    -0.5955074355    -0.0575720741
|  8>  C       -1.2909339858    -1.9894098742    -0.2541587987
|  9>  N       -2.4381804578    -2.6404839291    -0.2197446973
| 10>  C       -3.5600374753    -1.9276398014     0.0106526665
| 11>  C       -4.8641270364    -2.6750357835     0.0487005598
| 12>  C       -3.4780964718    -0.5543547594     0.2016159854
| 13>  N       -2.3192884902     0.1197493251     0.1692549862
| 14>  H        1.0781316825     1.6704781511     0.0123328237
| 15>  H       -0.5613112889     1.9244389553    -0.6683799886
| 16>  H       -0.3645120476     1.6699306243     1.0774237062
| 17>  H       -0.3798434844    -2.5519580904    -0.4388822591
| 18>  H       -5.7038000938    -2.0023139302     0.2413679644
| 19>  H       -5.0431158636    -3.1894882101    -0.9010545771
| 20>  H       -4.8480350103    -3.4417714491     0.8301013741
| 21>  H       -4.3727319820     0.0347931442     0.3883567797
| 22> *
| 23>
| 24>                          ****END OF INPUT****

CARTESIAN COORDINATES (ANGSTROEM)
---------------------------------
  C      0.024758    1.399435    0.091563
  O     -0.022000   -0.013010   -0.109076
  C     -1.232167   -0.595507   -0.057572
  C     -1.290934   -1.989410   -0.254159
  N     -2.438180   -2.640484   -0.219745
  C     -3.560037   -1.927640    0.010653
  C     -4.864127   -2.675036    0.048701
  C     -3.478096   -0.554355    0.201616
  N     -2.319288    0.119749    0.169255
  H      1.078132    1.670478    0.012333
  H     -0.561311    1.924439   -0.668380
  H     -0.364512    1.669931    1.077424
  H     -0.379843   -2.551958   -0.438882
  H     -5.703800   -2.002314    0.241368
  H     -5.043116   -3.189488   -0.901055
  H     -4.848035   -3.441771    0.830101
  H     -4.372732    0.034793    0.388357

 Total Charge           Charge          ....    0
 Multiplicity           Mult            ....    1
 Number of Electrons    NEL             ....   66
 Basis Dimension        Dim             ....  327

ORBITAL ENERGIES
----------------

  NO   OCC          E(Eh)            E(eV)
   0   2.0000     -20.594268      -560.3985
   1   2.0000     -15.585371      -424.0995
   2   2.0000     -15.578627      -423.9160
   3   2.0000     -11.339209      -308.5556
   4   2.0000     -11.282782      -307.0201
   5   2.0000     -11.276567      -306.8510
   6   2.0000     -11.275946      -306.8341
   7   2.0000     -11.272275      -306.7342
   8   2.0000     -11.227030      -305.5030
   9   2.0000      -1.432087       -38.9691
  10   2.0000      -1.296697       -35.2849
  11   2.0000      -1.213488       -33.0207
  12   2.0000      -1.066957       -29.0334
  13   2.0000      -0.987590       -26.8737
  14   2.0000      -0.931393       -25.3445
  15   2.0000      -0.894494       -24.3404
  16   2.0000      -0.835508       -22.7353
  17   2.0000      -0.733896       -19.9703
  18   2.0000      -0.724269       -19.7084
  19   2.0000      -0.665894       -18.1199
  20   2.0000      -0.663935       -18.0666
  21   2.0000      -0.619477       -16.8568
  22   2.0000      -0.605782       -16.4842
  23   2.0000      -0.594308       -16.1719
  24   2.0000      -0.554874       -15.0989
  25   2.0000      -0.549299       -14.9472
  26   2.0000      -0.543575       -14.7914
  27   2.0000      -0.520660       -14.1679
  28   2.0000      -0.489366       -13.3163
  29   2.0000      -0.488901       -13.3037
  30   2.0000      -0.430019       -11.7014
  31   2.0000      -0.409317       -11.1381
  32   2.0000      -0.322213        -8.7679
  33   0.0000       0.087199         2.3728
  34   0.0000       0.135402         3.6845
  35   0.0000       0.145115         3.9488
  36   0.0000       0.156498         4.2585
  37   0.0000       0.180697         4.9170

MULLIKEN ATOMIC CHARGES
-----------------------
   0 C :   -0.201340
   1 O :   -0.267987
   2 C :    0.304322
   3 C :   -0.067183
   4 N :   -0.253751
   5 C :    0.175727
   6 C :   -0.404535
   7 C :   -0.099607
   8 N :   -0.283028
   9 H :    0.145737
  10 H :    0.132636
  11 H :    0.132636
  12 H :    0.137407
  13 H :    0.131408
  14 H :    0.145324
  15 H :    0.145323
  16 H :    0.126911
Sum of atomic charges:    0.0000000

LOEWDIN ATOMIC CHARGES
----------------------
   0 C :   -0.318052
   1 O :    0.234898
   2 C :   -0.353767
   3 C :   -0.182300
   4 N :    0.165411
   5 C :   -0.257740
   6 C :   -0.268000
   7 C :   -0.196602
   8 N :    0.153409
   9 H :    0.114513
  10 H :    0.111705
  11 H :    0.111705
  12 H :    0.145144
  13 H :    0.128337
  14 H :    0.134628
  15 H :    0.134627
  16 H :    0.142083

  Mayer bond orders larger than 0.1
B(  0-C ,  1-O ) :   0.8439 B(  0-C ,  9-H ) :   0.9336 B(  0-C , 10-H ) :   0.9349
B(  0-C , 11-H ) :   0.9349 B(  1-O ,  2-C ) :   1.1146 B(  2-C ,  3-C ) :   1.2150
B(  2-C ,  8-N ) :   1.3292 B(  3-C ,  4-N ) :   1.4864 B(  3-C , 12-H ) :   0.9360
B(  4-N ,  5-C ) :   1.2677 B(  5-C ,  6-C ) :   0.8882 B(  5-C ,  7-C ) :   1.3553
B(  6-C , 13-H ) :   0.9514 B(  6-C , 14-H ) :   0.9277 B(  6-C , 15-H ) :   0.9277
B(  7-C ,  8-N ) :   1.3743 B(  7-C , 16-H ) :   0.9377

MP2 TOTAL ENERGY:     -417.343659488 Eh
FINAL SINGLE POINT ENERGY      -417.343659488425

DIPOLE MOMENT
-------------
                                X             Y             Z
Electronic contribution:      3.02176      -1.08867      -0.49934
Nuclear contribution   :     -3.18119       1.59996       0.59185
                        -----------------------------------------
Total Dipole Moment    :     -0.15943       0.51129       0.09251
                        -----------------------------------------
Magnitude (a.u.)       :      0.54350
Magnitude (Debye)      :      1.38146

                             ****ORCA TERMINATED NORMALLY****
TOTAL RUN TIME: 0 days 0 hours 15 minutes 37 seconds 962 msec
