                         Program Version 3.0.3 - RELEASE   -
|  1> ! RI-MP2 RIJK def2-TZVP def2-TZVP/C def2-TZVP/JK TIGHTSCF
|  2> % maxcore 2000
|  3> % mp2 density relaxed end
|  4> *xyz 0 1
|  5>  C        0.0057428198     1.4898730481     0.0948348953
|  6>  C       -0.0358816731     0.0386425901     0.0112242599
|  7>  C       -0.0779512149    -1.1644874317    -0.0456683795
|  8>  C       -0.0809128654    -2.5814961971    -0.1568153372
|  9>  C        0.7588618811    -3.4692707686    -1.1002327137
| 10>  C       -0.4058332095    -4.5189664019    -1.0853253516
| 11>  C       -1.1711906849    -3.5905763214    -0.1349887755
| 12>  O       -0.3509190998    -3.3851463458     1.0129231614
| 13>  H        0.9372034351     1.8840871772    -0.3260847326
| 14>  H       -0.8268762673     1.9467020338    -0.4516663231
| 15>  H       -0.0557656333     1.8248392698     1.1360911348
| 16>  H        0.9086027281    -3.0198617009    -2.0836658336
| 17>  H        1.7190751283    -3.7838899794    -0.6865788934
| 18>  H       -0.8833930015    -4.6268293877    -2.0618025080
| 19>  H       -0.1785039553    -5.5061839284    -0.6769112564
| 20>  H       -2.2404664175    -3.4601973063    -0.0106144468
| 21> *
| 22>
| 23>                          ****END OF INPUT****

CARTESIAN COORDINATES (ANGSTROEM)
---------------------------------
  C      0.005743    1.489873    0.094835
  C     -0.035882    0.038643    0.011224
  C     -0.077951   -1.164487   -0.045668
  C     -0.080913   -2.581496   -0.156815
  C      0.758862   -3.469271   -1.100233
  C     -0.405833   -4.518966   -1.085325
  C     -1.171191   -3.590576   -0.134989
  O     -0.350919   -3.385146    1.012923
  H      0.937203    1.884087   -0.326085
  H     -0.826876    1.946702   -0.451666
  H     -0.055766    1.824839    1.136091
  H      0.908603   -3.019862   -2.083666
  H      1.719075   -3.783890   -0.686579
  H     -0.883393   -4.626829   -2.061803
  H     -0.178504   -5.506184   -0.676911
  H     -2.240466   -3.460197   -0.010614

 Total Charge           Charge          ....    0
 Multiplicity           Mult            ....    1
 Number of Electrons    NEL             ....   58
 Basis Dimension        Dim             ....  296

ORBITAL ENERGIES
----------------

  NO   OCC          E(Eh)            E(eV)
   0   2.0000     -20.569969      -559.7373
   1   2.0000     -11.307361      -307.6889
   2   2.0000     -11.291265      -307.2509
   3   2.0000     -11.251546      -306.1701
   4   2.0000     -11.238113      -305.8046
   5   2.0000     -11.236527      -305.7614
   6   2.0000     -11.236389      -305.7577
   7   2.0000     -11.224583      -305.4364
   8   2.0000      -1.420702       -38.6593
   9   2.0000      -1.088841       -29.6289
  10   2.0000      -1.063905       -28.9503
  11   2.0000      -0.984307       -26.7843
  12   2.0000      -0.911112       -24.7926
  13   2.0000      -0.874646       -23.8003
  14   2.0000      -0.786862       -21.4116
  15   2.0000      -0.732478       -19.9317
  16   2.0000      -0.643737       -17.5170
  17   2.0000      -0.629061       -17.1176
  18   2.0000      -0.626367       -17.0443
  19   2.0000      -0.592963       -16.1354
  20   2.0000      -0.591209       -16.0876
  21   2.0000      -0.580590       -15.7986
  22   2.0000      -0.525016       -14.2864
  23   2.0000      -0.502505       -13.6739
  24   2.0000      -0.492661       -13.4060
  25   2.0000      -0.452926       -12.3247
  26   2.0000      -0.443871       -12.0783
  27   2.0000      -0.378623       -10.3029
  28   2.0000      -0.349800        -9.5185
  29   0.0000       0.136014         3.7011
  30   0.0000       0.154594         4.2067
  31   0.0000       0.155535         4.2323
  32   0.0000       0.172073         4.6823
  33   0.0000       0.181192         4.9305

MULLIKEN ATOMIC CHARGES
-----------------------
   0 C :   -0.470739
   1 C :    0.092976
   2 C :    0.037277
   3 C :   -0.037590
   4 C :   -0.236446
   5 C :   -0.163757
   6 C :   -0.023978
   7 O :   -0.309034
   8 H :    0.164056
   9 H :    0.163383
  10 H :    0.167853
  11 H :    0.124580
  12 H :    0.121516
  13 H :    0.115240
  14 H :    0.118861
  15 H :    0.135801
Sum of atomic charges:   -0.0000000

LOEWDIN ATOMIC CHARGES
----------------------
   0 C :   -0.291461
   1 C :   -0.074709
   2 C :   -0.047639
   3 C :   -0.271751
   4 C :   -0.178098
   5 C :   -0.218144
   6 C :   -0.218154
   7 O :    0.201550
   8 H :    0.142632
   9 H :    0.141863
  10 H :    0.144201
  11 H :    0.138462
  12 H :    0.133341
  13 H :    0.135417
  14 H :    0.131241
  15 H :    0.131249

  Mayer bond orders larger than 0.1
B(  0-C ,  1-C ) :   0.8560 B(  0-C ,  8-H ) :   0.9453 B(  0-C ,  9-H ) :   0.9441
B(  0-C , 10-H ) :   0.9428 B(  1-C ,  2-C ) :   2.6613 B(  1-C ,  3-C ) :  -0.1944
B(  2-C ,  3-C ) :   1.1283 B(  3-C ,  4-C ) :   0.9405 B(  3-C ,  6-C ) :   0.8854
B(  3-C ,  7-O ) :   0.8743 B(  4-C ,  5-C ) :   0.9890 B(  4-C , 11-H ) :   0.9196
B(  4-C , 12-H ) :   0.9088 B(  5-C ,  6-C ) :   0.9133 B(  5-C , 13-H ) :   0.9098
B(  5-C , 14-H ) :   0.9140 B(  6-C ,  7-O ) :   0.9166 B(  6-C , 15-H ) :   0.9223

MP2 TOTAL ENERGY:     -345.921660884 Eh
FINAL SINGLE POINT ENERGY      -345.921660884398

DIPOLE MOMENT
-------------
                                X             Y             Z
Electronic contribution:     -0.83597      -2.03411       2.83317
Nuclear contribution   :      0.68817       2.44308      -3.57354
                        -----------------------------------------
Total Dipole Moment    :     -0.14780       0.40897      -0.74037
                        -----------------------------------------
Magnitude (a.u.)       :      0.85864
Magnitude (Debye)      :      2.18248

                             ****ORCA TERMINATED NORMALLY****
TOTAL RUN TIME: 0 days 0 hours 12 minutes 34 seconds 853 msec
