                         Program Version 3.0.3 - RELEASE   -
|  1> ! RI-MP2 RIJK def2-TZVP def2-TZVP/C def2-TZVP/JK TIGHTSCF
|  2> % maxcore 2000
|  3> % mp2 density relaxed end
|  4> *xyz 0 1
|  5>  C       -0.0543205066     1.5100898333     0.0639542987
|  6>  C       -0.0157414085     0.0237079117    -0.0522274564
|  7>  C       -0.0635899573    -0.8014250103    -1.1516194525
|  8>  C        0.0181814863    -2.1503948767    -0.6858399993
|  9>  O       -0.0510281601    -3.3389372965    -1.3875940791
| 10>  C        0.1070978001    -2.1026155873     0.6813084261
| 11>  O        0.1910770972    -3.0852849020     1.6128806070
| 12>  N        0.0806338245    -0.7906825150     1.0665754691
| 13>  H        0.8525130934     1.9194239323     0.5290259874
| 14>  H       -0.1411856567     1.9542532784    -0.9304945577
| 15>  H       -0.9091131659     1.8621304990     0.6565787445
| 16>  H       -0.1511569134    -0.4792681687    -2.1783793774
| 17>  H        0.6710492941    -3.3635818230    -2.0240462315
| 18>  H        0.1600341839    -3.9186585187     1.1275353753
| 19>  H        0.1230728690    -0.4819214766     2.0220834760
| 20> *
| 21>
| 22>                          ****END OF INPUT****

CARTESIAN COORDINATES (ANGSTROEM)
---------------------------------
  C     -0.054321    1.510090    0.063954
  C     -0.015741    0.023708   -0.052227
  C     -0.063590   -0.801425   -1.151619
  C      0.018181   -2.150395   -0.685840
  O     -0.051028   -3.338937   -1.387594
  C      0.107098   -2.102616    0.681308
  O      0.191077   -3.085285    1.612881
  N      0.080634   -0.790683    1.066575
  H      0.852513    1.919424    0.529026
  H     -0.141186    1.954253   -0.930495
  H     -0.909113    1.862130    0.656579
  H     -0.151157   -0.479268   -2.178379
  H      0.671049   -3.363582   -2.024046
  H      0.160034   -3.918659    1.127535
  H      0.123073   -0.481921    2.022083

 Total Charge           Charge          ....    0
 Multiplicity           Mult            ....    1
 Number of Electrons    NEL             ....   60
 Basis Dimension        Dim             ....  290

ORBITAL ENERGIES
----------------

  NO   OCC          E(Eh)            E(eV)
   0   2.0000     -20.590456      -560.2948
   1   2.0000     -20.573096      -559.8224
   2   2.0000     -15.596404      -424.3997
   3   2.0000     -11.306265      -307.6591
   4   2.0000     -11.255692      -306.2830
   5   2.0000     -11.254927      -306.2621
   6   2.0000     -11.231264      -305.6182
   7   2.0000     -11.207675      -304.9764
   8   2.0000      -1.414607       -38.4934
   9   2.0000      -1.375477       -37.4286
  10   2.0000      -1.279991       -34.8303
  11   2.0000      -1.040875       -28.3236
  12   2.0000      -1.019259       -27.7355
  13   2.0000      -0.909074       -24.7372
  14   2.0000      -0.806782       -21.9536
  15   2.0000      -0.787646       -21.4330
  16   2.0000      -0.730878       -19.8882
  17   2.0000      -0.675525       -18.3820
  18   2.0000      -0.665857       -18.1189
  19   2.0000      -0.624972       -17.0063
  20   2.0000      -0.599182       -16.3046
  21   2.0000      -0.588516       -16.0143
  22   2.0000      -0.575117       -15.6497
  23   2.0000      -0.565728       -15.3942
  24   2.0000      -0.556389       -15.1401
  25   2.0000      -0.533271       -14.5110
  26   2.0000      -0.506689       -13.7877
  27   2.0000      -0.475871       -12.9491
  28   2.0000      -0.343250        -9.3403
  29   2.0000      -0.268249        -7.2994
  30   0.0000       0.132313         3.6004
  31   0.0000       0.137709         3.7473
  32   0.0000       0.166289         4.5249
  33   0.0000       0.175950         4.7879
  34   0.0000       0.182680         4.9710

MULLIKEN ATOMIC CHARGES
-----------------------
   0 C :   -0.441425
   1 C :    0.144007
   2 C :   -0.277273
   3 C :    0.117225
   4 O :   -0.494905
   5 C :    0.193814
   6 O :   -0.445321
   7 N :   -0.288281
   8 H :    0.139290
   9 H :    0.146179
  10 H :    0.140073
  11 H :    0.126894
  12 H :    0.342797
  13 H :    0.350229
  14 H :    0.246697
Sum of atomic charges:   -0.0000000

LOEWDIN ATOMIC CHARGES
----------------------
   0 C :   -0.285414
   1 C :   -0.259244
   2 C :   -0.174982
   3 C :   -0.325930
   4 O :    0.016089
   5 C :   -0.356129
   6 O :    0.055767
   7 N :    0.208018
   8 H :    0.127195
   9 H :    0.137677
  10 H :    0.127668
  11 H :    0.139665
  12 H :    0.189555
  13 H :    0.205409
  14 H :    0.194657

  Mayer bond orders larger than 0.1
B(  0-C ,  1-C ) :   0.8559 B(  0-C ,  8-H ) :   0.9359 B(  0-C ,  9-H ) :   0.9533
B(  0-C , 10-H ) :   0.9350 B(  1-C ,  2-C ) :   1.4736 B(  1-C ,  7-N ) :   1.0862
B(  2-C ,  3-C ) :   1.2039 B(  2-C , 11-H ) :   0.9209 B(  3-C ,  4-O ) :   1.0328
B(  3-C ,  5-C ) :   1.4621 B(  4-O , 12-H ) :   0.8336 B(  5-C ,  6-O ) :   1.1186
B(  5-C ,  7-N ) :   1.1233 B(  6-O , 13-H ) :   0.8197 B(  7-N , 14-H ) :   0.8697

MP2 TOTAL ENERGY:     -399.178343930 Eh
FINAL SINGLE POINT ENERGY      -399.178343929567

DIPOLE MOMENT
-------------
                                X             Y             Z
Electronic contribution:      0.10723      -6.46641       1.01784
Nuclear contribution   :      0.34387       6.80926      -0.97230
                        -----------------------------------------
Total Dipole Moment    :      0.45110       0.34285       0.04554
                        -----------------------------------------
Magnitude (a.u.)       :      0.56843
Magnitude (Debye)      :      1.44484

                             ****ORCA TERMINATED NORMALLY****
TOTAL RUN TIME: 0 days 0 hours 9 minutes 50 seconds 633 msec
