                         Program Version 3.0.3 - RELEASE   -
|  1> ! RI-MP2 RIJK def2-TZVP def2-TZVP/C def2-TZVP/JK TIGHTSCF
|  2> % maxcore 2000
|  3> % mp2 density relaxed end
|  4> *xyz 0 1
|  5>  C        0.1299985488     1.4833938311    -0.2600825854
|  6>  C       -0.0203990777     0.0606591121     0.3085174241
|  7>  C       -1.3877957584    -0.4442140919     0.2422598945
|  8>  C       -2.5264551459    -0.8321198973     0.1876497265
|  9>  C       -3.8956123343    -1.3385810000     0.0966753562
| 10>  C       -3.9121565476    -2.8454139240    -0.2106071492
| 11>  O       -4.5603507217    -1.0395946103     1.3229448030
| 12>  C       -5.9657128718    -1.0248415379     1.2264908501
| 13>  H        1.1691521425     1.8173678769    -0.1837306033
| 14>  H       -0.1656506467     1.5146994355    -1.3123301097
| 15>  H       -0.5007146281     2.1883954378     0.2880118157
| 16>  H        0.6464730508    -0.6236578660    -0.2317969205
| 17>  H        0.3173263306     0.0451913654     1.3527580130
| 18>  H       -4.4110034815    -0.8072308137    -0.7225463647
| 19>  H       -4.9375021819    -3.2122600690    -0.3115923104
| 20>  H       -3.3835781063    -3.0455479030    -1.1466150975
| 21>  H       -3.4177057560    -3.3925452104     0.5957969609
| 22>  H       -6.3467577289    -0.6992386534     2.1975710639
| 23>  H       -6.3138910820    -0.3187535121     0.4556952645
| 24>  H       -6.3907227040    -2.0144236298     1.0022120484
| 25> *
| 26>
| 27>                          ****END OF INPUT****

CARTESIAN COORDINATES (ANGSTROEM)
---------------------------------
  C      0.129999    1.483394   -0.260083
  C     -0.020399    0.060659    0.308517
  C     -1.387796   -0.444214    0.242260
  C     -2.526455   -0.832120    0.187650
  C     -3.895612   -1.338581    0.096675
  C     -3.912157   -2.845414   -0.210607
  O     -4.560351   -1.039595    1.322945
  C     -5.965713   -1.024842    1.226491
  H      1.169152    1.817368   -0.183731
  H     -0.165651    1.514699   -1.312330
  H     -0.500715    2.188395    0.288012
  H      0.646473   -0.623658   -0.231797
  H      0.317326    0.045191    1.352758
  H     -4.411003   -0.807231   -0.722546
  H     -4.937502   -3.212260   -0.311592
  H     -3.383578   -3.045548   -1.146615
  H     -3.417706   -3.392545    0.595797
  H     -6.346758   -0.699239    2.197571
  H     -6.313891   -0.318754    0.455695
  H     -6.390723   -2.014424    1.002212

 Total Charge           Charge          ....    0
 Multiplicity           Mult            ....    1
 Number of Electrons    NEL             ....   62
 Basis Dimension        Dim             ....  320

ORBITAL ENERGIES
----------------

  NO   OCC          E(Eh)            E(eV)
   0   2.0000     -20.555269      -559.3373
   1   2.0000     -11.303804      -307.5922
   2   2.0000     -11.270886      -306.6964
   3   2.0000     -11.247119      -306.0497
   4   2.0000     -11.221126      -305.3424
   5   2.0000     -11.220042      -305.3129
   6   2.0000     -11.218868      -305.2809
   7   2.0000     -11.210682      -305.0582
   8   2.0000      -1.375296       -37.4237
   9   2.0000      -1.079893       -29.3854
  10   2.0000      -1.047058       -28.4919
  11   2.0000      -0.973389       -26.4873
  12   2.0000      -0.930040       -25.3077
  13   2.0000      -0.873285       -23.7633
  14   2.0000      -0.834994       -22.7213
  15   2.0000      -0.696917       -18.9641
  16   2.0000      -0.669117       -18.2076
  17   2.0000      -0.641224       -17.4486
  18   2.0000      -0.634997       -17.2792
  19   2.0000      -0.619592       -16.8599
  20   2.0000      -0.576854       -15.6970
  21   2.0000      -0.562940       -15.3184
  22   2.0000      -0.548088       -14.9142
  23   2.0000      -0.538183       -14.6447
  24   2.0000      -0.521768       -14.1980
  25   2.0000      -0.514299       -13.9948
  26   2.0000      -0.508284       -13.8311
  27   2.0000      -0.478414       -13.0183
  28   2.0000      -0.428448       -11.6587
  29   2.0000      -0.370473       -10.0811
  30   2.0000      -0.362677        -9.8689
  31   0.0000       0.132128         3.5954
  32   0.0000       0.149254         4.0614
  33   0.0000       0.169620         4.6156
  34   0.0000       0.176681         4.8077
  35   0.0000       0.181243         4.9319

MULLIKEN ATOMIC CHARGES
-----------------------
   0 C :   -0.361420
   1 C :   -0.301393
   2 C :    0.091048
   3 C :    0.018446
   4 C :   -0.088352
   5 C :   -0.376204
   6 O :   -0.289180
   7 C :   -0.220782
   8 H :    0.131048
   9 H :    0.127630
  10 H :    0.132907
  11 H :    0.139758
  12 H :    0.143373
  13 H :    0.094646
  14 H :    0.127248
  15 H :    0.132267
  16 H :    0.135194
  17 H :    0.142428
  18 H :    0.112334
  19 H :    0.109005
Sum of atomic charges:   -0.0000000

LOEWDIN ATOMIC CHARGES
----------------------
   0 C :   -0.300142
   1 C :   -0.277499
   2 C :   -0.068375
   3 C :   -0.053364
   4 C :   -0.339633
   5 C :   -0.279767
   6 O :    0.159205
   7 C :   -0.360950
   8 H :    0.120480
   9 H :    0.123455
  10 H :    0.124839
  11 H :    0.152614
  12 H :    0.154543
  13 H :    0.148940
  14 H :    0.120052
  15 H :    0.129501
  16 H :    0.129785
  17 H :    0.115253
  18 H :    0.101700
  19 H :    0.099364

  Mayer bond orders larger than 0.1
B(  0-C ,  1-C ) :   0.9420 B(  0-C ,  8-H ) :   0.9395 B(  0-C ,  9-H ) :   0.9356
B(  0-C , 10-H ) :   0.9353 B(  1-C ,  2-C ) :   0.9444 B(  1-C , 11-H ) :   0.9419
B(  1-C , 12-H ) :   0.9354 B(  2-C ,  3-C ) :   2.6748 B(  2-C ,  4-C ) :  -0.1053
B(  3-C ,  4-C ) :   1.0290 B(  4-C ,  5-C ) :   0.9366 B(  4-C ,  6-O ) :   1.0403
B(  4-C , 13-H ) :   0.9644 B(  5-C , 14-H ) :   0.9343 B(  5-C , 15-H ) :   0.9284
B(  5-C , 16-H ) :   0.9325 B(  6-O ,  7-C ) :   0.9212 B(  7-C , 17-H ) :   0.9395
B(  7-C , 18-H ) :   0.9370 B(  7-C , 19-H ) :   0.9323

MP2 TOTAL ENERGY:     -348.352468956 Eh
FINAL SINGLE POINT ENERGY      -348.352468956434

DIPOLE MOMENT
-------------
                                X             Y             Z
Electronic contribution:     -0.34319      -0.51269       1.94500
Nuclear contribution   :      0.25119       0.46676      -2.36796
                        -----------------------------------------
Total Dipole Moment    :     -0.09200      -0.04593      -0.42297
                        -----------------------------------------
Magnitude (a.u.)       :      0.43528
Magnitude (Debye)      :      1.10641

                             ****ORCA TERMINATED NORMALLY****
TOTAL RUN TIME: 0 days 0 hours 12 minutes 12 seconds 125 msec
