                         Program Version 3.0.3 - RELEASE   -
|  1> ! RI-MP2 RIJK def2-TZVP def2-TZVP/C def2-TZVP/JK TIGHTSCF
|  2> % maxcore 2000
|  3> % mp2 density relaxed end
|  4> *xyz 0 1
|  5>  C       -0.1217968520     1.4976417225     0.0119376749
|  6>  C        0.1087074886     0.0253233313    -0.0318479461
|  7>  O       -0.8394192076    -0.8406253554     0.6496303905
|  8>  C        0.5738476692    -0.9514886406     0.9471246487
|  9>  C        1.3015009774    -1.7908115459    -0.1451172962
| 10>  C        2.6935387036    -2.3081129133     0.0752834159
| 11>  C        0.3740675421    -2.2254657516    -1.2500185267
| 12>  O       -0.8946744655    -2.7743234661    -1.1529723198
| 13>  C        0.7678749558    -0.7657975543    -1.1976419600
| 14>  H        0.7996771638     2.0371142845    -0.2299439693
| 15>  H       -0.8846236809     1.7924049622    -0.7176166527
| 16>  H       -0.4576043165     1.8014066900     1.0067528584
| 17>  H        0.8646472907    -0.8558407045     1.9876335343
| 18>  H        2.6963180991    -3.1432028105     0.7868559150
| 19>  H        3.1292154758    -2.6697629616    -0.8613873543
| 20>  H        3.3593506479    -1.5320352968     0.4725967258
| 21>  H        0.9246886196    -2.7443100456    -2.0339926618
| 22>  H       -1.3409267415    -2.2689136822    -0.4594560913
| 23>  H        1.3156811003    -0.2719697819    -1.9925810255
| 24> *
| 25>
| 26>                          ****END OF INPUT****

CARTESIAN COORDINATES (ANGSTROEM)
---------------------------------
  C     -0.121797    1.497642    0.011938
  C      0.108707    0.025323   -0.031848
  O     -0.839419   -0.840625    0.649630
  C      0.573848   -0.951489    0.947125
  C      1.301501   -1.790812   -0.145117
  C      2.693539   -2.308113    0.075283
  C      0.374068   -2.225466   -1.250019
  O     -0.894674   -2.774323   -1.152972
  C      0.767875   -0.765798   -1.197642
  H      0.799677    2.037114   -0.229944
  H     -0.884624    1.792405   -0.717617
  H     -0.457604    1.801407    1.006753
  H      0.864647   -0.855841    1.987634
  H      2.696318   -3.143203    0.786856
  H      3.129215   -2.669763   -0.861387
  H      3.359351   -1.532035    0.472597
  H      0.924689   -2.744310   -2.033993
  H     -1.340927   -2.268914   -0.459456
  H      1.315681   -0.271970   -1.992581

 Total Charge           Charge          ....    0
 Multiplicity           Mult            ....    1
 Number of Electrons    NEL             ....   68
 Basis Dimension        Dim             ....  339

ORBITAL ENERGIES
----------------

  NO   OCC          E(Eh)            E(eV)
   0   2.0000     -20.576972      -559.9279
   1   2.0000     -20.540805      -558.9437
   2   2.0000     -11.305159      -307.6290
   3   2.0000     -11.294853      -307.3486
   4   2.0000     -11.293084      -307.3004
   5   2.0000     -11.251204      -306.1608
   6   2.0000     -11.238986      -305.8284
   7   2.0000     -11.236717      -305.7666
   8   2.0000     -11.231589      -305.6271
   9   2.0000      -1.425452       -38.7885
  10   2.0000      -1.354442       -36.8562
  11   2.0000      -1.160829       -31.5878
  12   2.0000      -1.024522       -27.8787
  13   2.0000      -0.979433       -26.6517
  14   2.0000      -0.932858       -25.3844
  15   2.0000      -0.850662       -23.1477
  16   2.0000      -0.794611       -21.6225
  17   2.0000      -0.746548       -20.3146
  18   2.0000      -0.679636       -18.4938
  19   2.0000      -0.668995       -18.2043
  20   2.0000      -0.642004       -17.4698
  21   2.0000      -0.605416       -16.4742
  22   2.0000      -0.592117       -16.1123
  23   2.0000      -0.581783       -15.8311
  24   2.0000      -0.572110       -15.5679
  25   2.0000      -0.560593       -15.2545
  26   2.0000      -0.551413       -15.0047
  27   2.0000      -0.546905       -14.8821
  28   2.0000      -0.522807       -14.2263
  29   2.0000      -0.500587       -13.6217
  30   2.0000      -0.477510       -12.9937
  31   2.0000      -0.422640       -11.5006
  32   2.0000      -0.387448       -10.5430
  33   2.0000      -0.347820        -9.4647
  34   0.0000       0.131195         3.5700
  35   0.0000       0.148216         4.0332
  36   0.0000       0.170682         4.6445
  37   0.0000       0.178750         4.8640
  38   0.0000       0.185674         5.0525

MULLIKEN ATOMIC CHARGES
-----------------------
   0 C :   -0.427990
   1 C :    0.151538
   2 O :   -0.366514
   3 C :   -0.064568
   4 C :    0.110161
   5 C :   -0.415073
   6 C :    0.010618
   7 O :   -0.455895
   8 C :   -0.126348
   9 H :    0.139431
  10 H :    0.145951
  11 H :    0.149018
  12 H :    0.149475
  13 H :    0.143104
  14 H :    0.134439
  15 H :    0.130254
  16 H :    0.110456
  17 H :    0.341770
  18 H :    0.140173
Sum of atomic charges:   -0.0000000

LOEWDIN ATOMIC CHARGES
----------------------
   0 C :   -0.266355
   1 C :   -0.271971
   2 O :    0.165357
   3 C :   -0.174125
   4 C :   -0.187243
   5 C :   -0.275327
   6 C :   -0.282158
   7 O :    0.000953
   8 C :   -0.114194
   9 H :    0.135618
  10 H :    0.135854
  11 H :    0.137212
  12 H :    0.136846
  13 H :    0.132313
  14 H :    0.132246
  15 H :    0.127284
  16 H :    0.154745
  17 H :    0.173356
  18 H :    0.139591

  Mayer bond orders larger than 0.1
B(  0-C ,  1-C ) :   0.8696 B(  0-C ,  9-H ) :   0.9367 B(  0-C , 10-H ) :   0.9380
B(  0-C , 11-H ) :   0.9409 B(  1-C ,  2-O ) :   0.8338 B(  1-C ,  3-C ) :   0.9644
B(  1-C ,  8-C ) :   0.8562 B(  2-O ,  3-C ) :   0.8421 B(  3-C ,  4-C ) :   0.8310
B(  3-C , 12-H ) :   0.9191 B(  4-C ,  5-C ) :   0.8688 B(  4-C ,  6-C ) :   0.8822
B(  4-C ,  8-C ) :   0.7556 B(  5-C , 13-H ) :   0.9398 B(  5-C , 14-H ) :   0.9390
B(  5-C , 15-H ) :   0.9325 B(  6-C ,  7-O ) :   1.0545 B(  6-C ,  8-C ) :   0.8383
B(  6-C , 16-H ) :   0.9623 B(  7-O , 17-H ) :   0.7991 B(  8-C , 18-H ) :   0.9039

MP2 TOTAL ENERGY:     -422.246326360 Eh
FINAL SINGLE POINT ENERGY      -422.246326359864

DIPOLE MOMENT
-------------
                                X             Y             Z
Electronic contribution:     -4.89820      -2.45729       0.05828
Nuclear contribution   :      5.91920       3.32338       0.25681
                        -----------------------------------------
Total Dipole Moment    :      1.02101       0.86608       0.31510
                        -----------------------------------------
Magnitude (a.u.)       :      1.37544
Magnitude (Debye)      :      3.49609

                             ****ORCA TERMINATED NORMALLY****
TOTAL RUN TIME: 0 days 0 hours 18 minutes 27 seconds 519 msec
