                         Program Version 3.0.3 - RELEASE   -
|  1> ! RI-MP2 RIJK def2-TZVP def2-TZVP/C def2-TZVP/JK TIGHTSCF
|  2> % maxcore 2000
|  3> % mp2 density relaxed end
|  4> *xyz 0 1
|  5>  C       -0.1866419479     1.5638421859     0.0409858774
|  6>  C       -0.0539940793     0.0409541361    -0.0031512506
|  7>  C       -1.3867611793    -0.6532156400     0.2807321695
|  8>  C        0.6985359420    -0.5058359149    -1.2922334447
|  9>  N        1.7567300282    -0.9799080146    -0.3766824651
| 10>  C        2.9308426070    -1.5771224278    -0.0353983968
| 11>  N        3.0856965956    -1.5190209138     1.2761040407
| 12>  C        1.9843099218    -0.8662928223     1.7981924655
| 13>  C        1.1519922904    -0.5294222017     0.7591544643
| 14>  H        0.7670199602     2.0536911452    -0.1756495994
| 15>  H       -0.9286752667     1.9123346195    -0.6862443418
| 16>  H       -0.5127944517     1.8905153795     1.0336935027
| 17>  H       -2.1500293638    -0.3435024257    -0.4420584408
| 18>  H       -1.2874232071    -1.7414900436     0.2343949066
| 19>  H       -1.7482200148    -0.3924010648     1.2806721386
| 20>  H        0.1904904254    -1.3120861396    -1.8276377647
| 21>  H        1.0400118068     0.2567366995    -1.9969900725
| 22>  H        3.6173515652    -2.0244867925    -0.7365731838
| 23>  H        1.8868613480    -0.6982883844     2.8587200249
| 24> *
| 25>
| 26>                          ****END OF INPUT****

CARTESIAN COORDINATES (ANGSTROEM)
---------------------------------
  C     -0.186642    1.563842    0.040986
  C     -0.053994    0.040954   -0.003151
  C     -1.386761   -0.653216    0.280732
  C      0.698536   -0.505836   -1.292233
  N      1.756730   -0.979908   -0.376682
  C      2.930843   -1.577122   -0.035398
  N      3.085697   -1.519021    1.276104
  C      1.984310   -0.866293    1.798192
  C      1.151992   -0.529422    0.759154
  H      0.767020    2.053691   -0.175650
  H     -0.928675    1.912335   -0.686244
  H     -0.512794    1.890515    1.033694
  H     -2.150029   -0.343502   -0.442058
  H     -1.287423   -1.741490    0.234395
  H     -1.748220   -0.392401    1.280672
  H      0.190490   -1.312086   -1.827638
  H      1.040012    0.256737   -1.996990
  H      3.617352   -2.024487   -0.736573
  H      1.886861   -0.698288    2.858720

 Total Charge           Charge          ....    0
 Multiplicity           Mult            ....    1
 Number of Electrons    NEL             ....   66
 Basis Dimension        Dim             ....  339

ORBITAL ENERGIES
----------------

  NO   OCC          E(Eh)            E(eV)
   0   2.0000     -15.601162      -424.5292
   1   2.0000     -15.535601      -422.7452
   2   2.0000     -11.294793      -307.3469
   3   2.0000     -11.284283      -307.0609
   4   2.0000     -11.274641      -306.7986
   5   2.0000     -11.248642      -306.0911
   6   2.0000     -11.233308      -305.6739
   7   2.0000     -11.230308      -305.5922
   8   2.0000     -11.230290      -305.5917
   9   2.0000      -1.348949       -36.7068
  10   2.0000      -1.195458       -32.5301
  11   2.0000      -1.079751       -29.3815
  12   2.0000      -0.986464       -26.8431
  13   2.0000      -0.953802       -25.9543
  14   2.0000      -0.949434       -25.8354
  15   2.0000      -0.838594       -22.8193
  16   2.0000      -0.777609       -21.1598
  17   2.0000      -0.720758       -19.6128
  18   2.0000      -0.698925       -19.0187
  19   2.0000      -0.667947       -18.1758
  20   2.0000      -0.625084       -17.0094
  21   2.0000      -0.606442       -16.5021
  22   2.0000      -0.566260       -15.4087
  23   2.0000      -0.562933       -15.3182
  24   2.0000      -0.560887       -15.2625
  25   2.0000      -0.546889       -14.8816
  26   2.0000      -0.536640       -14.6027
  27   2.0000      -0.499417       -13.5898
  28   2.0000      -0.493874       -13.4390
  29   2.0000      -0.478240       -13.0136
  30   2.0000      -0.414219       -11.2715
  31   2.0000      -0.374551       -10.1921
  32   2.0000      -0.305485        -8.3127
  33   0.0000       0.121631         3.3097
  34   0.0000       0.154727         4.2103
  35   0.0000       0.159774         4.3477
  36   0.0000       0.176272         4.7966
  37   0.0000       0.188580         5.1315

MULLIKEN ATOMIC CHARGES
-----------------------
   0 C :   -0.412619
   1 C :    0.210128
   2 C :   -0.412596
   3 C :   -0.228870
   4 N :   -0.057348
   5 C :    0.002581
   6 N :   -0.281457
   7 C :   -0.159323
   8 C :   -0.043094
   9 H :    0.142626
  10 H :    0.134648
  11 H :    0.137166
  12 H :    0.134650
  13 H :    0.142615
  14 H :    0.137164
  15 H :    0.139109
  16 H :    0.139110
  17 H :    0.144776
  18 H :    0.130733
Sum of atomic charges:   -0.0000000

LOEWDIN ATOMIC CHARGES
----------------------
   0 C :   -0.265057
   1 C :   -0.263924
   2 C :   -0.265065
   3 C :   -0.146826
   4 N :    0.284729
   5 C :   -0.314810
   6 N :    0.084426
   7 C :   -0.247459
   8 C :   -0.165172
   9 H :    0.130499
  10 H :    0.126510
  11 H :    0.131272
  12 H :    0.126506
  13 H :    0.130497
  14 H :    0.131269
  15 H :    0.131883
  16 H :    0.131898
  17 H :    0.128786
  18 H :    0.130038

  Mayer bond orders larger than 0.1
B(  0-C ,  1-C ) :   0.9010 B(  0-C ,  9-H ) :   0.9307 B(  0-C , 10-H ) :   0.9337
B(  0-C , 11-H ) :   0.9338 B(  1-C ,  2-C ) :   0.9010 B(  1-C ,  3-C ) :   0.8622
B(  1-C ,  8-C ) :   0.9126 B(  2-C , 12-H ) :   0.9337 B(  2-C , 13-H ) :   0.9307
B(  2-C , 14-H ) :   0.9338 B(  3-C ,  4-N ) :   0.8637 B(  3-C , 15-H ) :   0.9117
B(  3-C , 16-H ) :   0.9118 B(  4-N ,  5-C ) :   1.1447 B(  4-N ,  8-C ) :   1.1153
B(  5-C ,  6-N ) :   1.5190 B(  5-C , 17-H ) :   0.9254 B(  6-N ,  7-C ) :   1.3157
B(  7-C ,  8-C ) :   1.4414 B(  7-C , 18-H ) :   0.9469

MP2 TOTAL ENERGY:     -381.400335137 Eh
FINAL SINGLE POINT ENERGY      -381.400335137413

DIPOLE MOMENT
-------------
                                X             Y             Z
Electronic contribution:      7.94226      -4.11808       1.67154
Nuclear contribution   :     -9.18020       4.66752      -2.78727
                        -----------------------------------------
Total Dipole Moment    :     -1.23794       0.54944      -1.11572
                        -----------------------------------------
Magnitude (a.u.)       :      1.75477
Magnitude (Debye)      :      4.46027

                             ****ORCA TERMINATED NORMALLY****
TOTAL RUN TIME: 0 days 0 hours 19 minutes 33 seconds 666 msec
