                         Program Version 3.0.3 - RELEASE   -
|  1> ! RI-MP2 RIJK def2-TZVP def2-TZVP/C def2-TZVP/JK TIGHTSCF
|  2> % maxcore 2000
|  3> % mp2 density relaxed end
|  4> *xyz 0 1
|  5>  C       -0.0062475734     1.4878153335     0.1111119516
|  6>  C        1.3125899603     0.7531702881     0.0761558099
|  7>  C        0.0160422409    -0.0198692354     0.0601869332
|  8>  C       -0.0735265855    -0.6797404692    -1.3365023265
|  9>  O       -0.7776244916     0.1546721581    -2.2684728730
| 10>  C        0.1408960343     0.9667895664    -2.9983684296
| 11>  C        1.5348705761     0.4980840597    -2.6308167215
| 12>  C        2.0621079704     0.3978409998    -1.1989873937
| 13>  C        1.3803037100    -0.7790159782    -1.8589945299
| 14>  H       -0.2750437126     1.9425520547     1.0597675778
| 15>  H       -0.3665424447     2.0312324806    -0.7501050489
| 16>  H        1.9258946337     0.7894358434     0.9705856670
| 17>  H       -0.3263624996    -0.5887186059     0.9175768021
| 18>  H       -0.5952882494    -1.6385049858    -1.2995432355
| 19>  H       -0.0253242887     0.8093483702    -4.0733728404
| 20>  H       -0.0406082475     2.0291575221    -2.7899839826
| 21>  H        2.2961557510     0.5850378560    -3.3991907845
| 22>  H        3.1446852697     0.4271247901    -1.1324092690
| 23>  H        1.8398427266    -1.7253108083    -2.1165170164
| 24> *
| 25>
| 26>                          ****END OF INPUT****

CARTESIAN COORDINATES (ANGSTROEM)
---------------------------------
  C     -0.006248    1.487815    0.111112
  C      1.312590    0.753170    0.076156
  C      0.016042   -0.019869    0.060187
  C     -0.073527   -0.679740   -1.336502
  O     -0.777624    0.154672   -2.268473
  C      0.140896    0.966790   -2.998368
  C      1.534871    0.498084   -2.630817
  C      2.062108    0.397841   -1.198987
  C      1.380304   -0.779016   -1.858995
  H     -0.275044    1.942552    1.059768
  H     -0.366542    2.031232   -0.750105
  H      1.925895    0.789436    0.970586
  H     -0.326362   -0.588719    0.917577
  H     -0.595288   -1.638505   -1.299543
  H     -0.025324    0.809348   -4.073373
  H     -0.040608    2.029158   -2.789984
  H      2.296156    0.585038   -3.399191
  H      3.144685    0.427125   -1.132409
  H      1.839843   -1.725311   -2.116517

 Total Charge           Charge          ....    0
 Multiplicity           Mult            ....    1
 Number of Electrons    NEL             ....   66
 Basis Dimension        Dim             ....  339

ORBITAL ENERGIES
----------------

  NO   OCC          E(Eh)            E(eV)
   0   2.0000     -20.543214      -559.0093
   1   2.0000     -11.281090      -306.9741
   2   2.0000     -11.272717      -306.7462
   3   2.0000     -11.238914      -305.8264
   4   2.0000     -11.237264      -305.7815
   5   2.0000     -11.230141      -305.5877
   6   2.0000     -11.225843      -305.4707
   7   2.0000     -11.223003      -305.3934
   8   2.0000     -11.220369      -305.3218
   9   2.0000      -1.369767       -37.2732
  10   2.0000      -1.182589       -32.1799
  11   2.0000      -1.111808       -30.2538
  12   2.0000      -0.989655       -26.9299
  13   2.0000      -0.910857       -24.7857
  14   2.0000      -0.844120       -22.9697
  15   2.0000      -0.791710       -21.5435
  16   2.0000      -0.760529       -20.6951
  17   2.0000      -0.748043       -20.3553
  18   2.0000      -0.722398       -19.6574
  19   2.0000      -0.650089       -17.6898
  20   2.0000      -0.624150       -16.9840
  21   2.0000      -0.604331       -16.4447
  22   2.0000      -0.590975       -16.0813
  23   2.0000      -0.568933       -15.4815
  24   2.0000      -0.551141       -14.9973
  25   2.0000      -0.530018       -14.4225
  26   2.0000      -0.495106       -13.4725
  27   2.0000      -0.464413       -12.6373
  28   2.0000      -0.448618       -12.2075
  29   2.0000      -0.426967       -11.6184
  30   2.0000      -0.408402       -11.1132
  31   2.0000      -0.396604       -10.7922
  32   2.0000      -0.361561        -9.8386
  33   0.0000       0.142070         3.8659
  34   0.0000       0.162251         4.4151
  35   0.0000       0.172037         4.6814
  36   0.0000       0.177466         4.8291
  37   0.0000       0.195710         5.3255

MULLIKEN ATOMIC CHARGES
-----------------------
   0 C :   -0.261587
   1 C :   -0.096644
   2 C :   -0.171300
   3 C :    0.167517
   4 O :   -0.333657
   5 C :   -0.047535
   6 C :   -0.133720
   7 C :   -0.146505
   8 C :   -0.189381
   9 H :    0.125117
  10 H :    0.133951
  11 H :    0.117638
  12 H :    0.125589
  13 H :    0.116555
  14 H :    0.108067
  15 H :    0.099314
  16 H :    0.127938
  17 H :    0.121667
  18 H :    0.136976
Sum of atomic charges:    0.0000000

LOEWDIN ATOMIC CHARGES
----------------------
   0 C :   -0.191966
   1 C :   -0.181523
   2 C :   -0.173911
   3 C :   -0.232182
   4 O :    0.165237
   5 C :   -0.289146
   6 C :   -0.183298
   7 C :   -0.152650
   8 C :   -0.148052
   9 H :    0.134517
  10 H :    0.136407
  11 H :    0.146334
  12 H :    0.140271
  13 H :    0.144076
  14 H :    0.127754
  15 H :    0.119519
  16 H :    0.150356
  17 H :    0.150431
  18 H :    0.137828

  Mayer bond orders larger than 0.1
B(  0-C ,  1-C ) :   0.9033 B(  0-C ,  2-C ) :   0.9035 B(  0-C ,  9-H ) :   0.9302
B(  0-C , 10-H ) :   0.9110 B(  1-C ,  2-C ) :   0.8907 B(  1-C ,  7-C ) :   0.9343
B(  1-C , 11-H ) :   0.9267 B(  2-C ,  3-C ) :   0.8972 B(  2-C , 12-H ) :   0.9200
B(  3-C ,  4-O ) :   0.9463 B(  3-C ,  8-C ) :   0.9430 B(  3-C , 13-H ) :   0.9285
B(  4-O ,  5-C ) :   0.9535 B(  5-C ,  6-C ) :   0.9796 B(  5-C , 14-H ) :   0.9150
B(  5-C , 15-H ) :   0.9327 B(  6-C ,  7-C ) :   0.8758 B(  6-C ,  8-C ) :   0.8623
B(  6-C , 16-H ) :   0.9209 B(  7-C ,  8-C ) :   0.8891 B(  7-C , 17-H ) :   0.9326
B(  8-C , 18-H ) :   0.9146

MP2 TOTAL ENERGY:     -385.182483574 Eh
FINAL SINGLE POINT ENERGY      -385.182483574402

DIPOLE MOMENT
-------------
                                X             Y             Z
Electronic contribution:     -0.92956      -1.49208      -0.84935
Nuclear contribution   :      1.58480       1.39859       0.93408
                        -----------------------------------------
Total Dipole Moment    :      0.65525      -0.09349       0.08473
                        -----------------------------------------
Magnitude (a.u.)       :      0.66728
Magnitude (Debye)      :      1.69610

                             ****ORCA TERMINATED NORMALLY****
TOTAL RUN TIME: 0 days 0 hours 18 minutes 54 seconds 210 msec
