                         Program Version 3.0.3 - RELEASE   -
|  1> ! RI-MP2 RIJK def2-TZVP def2-TZVP/C def2-TZVP/JK TIGHTSCF
|  2> % maxcore 2000
|  3> % mp2 density relaxed end
|  4> *xyz 0 1
|  5>  C        0.4756812211     1.5872043380    -0.0660411608
|  6>  C       -0.0256425798     0.1432655166    -0.0571169242
|  7>  O        0.4623859826    -0.4445648714    -1.2430881810
|  8>  C       -0.0950806997    -1.6878452358    -1.6223131462
|  9>  C        0.5719960510    -2.8903829300    -0.9527136978
| 10>  C        0.1629443362    -3.1250746560     0.5039017474
| 11>  C        0.4914367163    -2.0173673802     1.4850754812
| 12>  N        1.7101379957    -1.2147778217     1.2822444427
| 13>  C        0.3984525179    -0.5541725582     1.2331524449
| 14>  H        1.5687319226     1.5977759297    -0.0249207704
| 15>  H        0.1579006875     2.0890340917    -0.9831757946
| 16>  H        0.0859364420     2.1439180315     0.7914887036
| 17>  H       -1.1316660439     0.1453489096    -0.0779574802
| 18>  H       -1.1832862067    -1.6941185721    -1.4368970800
| 19>  H        0.0517195022    -1.7515390331    -2.7063991049
| 20>  H        0.3200527853    -3.7887082909    -1.5307707336
| 21>  H        1.6557176585    -2.7532862307    -1.0179336223
| 22>  H       -0.9194652787    -3.3116481683     0.5561419753
| 23>  H        0.6431418459    -4.0456822415     0.8612921843
| 24>  H        0.2682771505    -2.3015979376     2.5146925440
| 25>  H        2.1799771465    -1.0331619960     2.1639665505
| 26>  H        0.1089659871     0.0348433163     2.1054536223
| 27> *
| 28>
| 29>                          ****END OF INPUT****

CARTESIAN COORDINATES (ANGSTROEM)
---------------------------------
  C      0.475681    1.587204   -0.066041
  C     -0.025643    0.143266   -0.057117
  O      0.462386   -0.444565   -1.243088
  C     -0.095081   -1.687845   -1.622313
  C      0.571996   -2.890383   -0.952714
  C      0.162944   -3.125075    0.503902
  C      0.491437   -2.017367    1.485075
  N      1.710138   -1.214778    1.282244
  C      0.398453   -0.554173    1.233152
  H      1.568732    1.597776   -0.024921
  H      0.157901    2.089034   -0.983176
  H      0.085936    2.143918    0.791489
  H     -1.131666    0.145349   -0.077957
  H     -1.183286   -1.694119   -1.436897
  H      0.051720   -1.751539   -2.706399
  H      0.320053   -3.788708   -1.530771
  H      1.655718   -2.753286   -1.017934
  H     -0.919465   -3.311648    0.556142
  H      0.643142   -4.045682    0.861292
  H      0.268277   -2.301598    2.514693
  H      2.179977   -1.033162    2.163967
  H      0.108966    0.034843    2.105454

 Total Charge           Charge          ....    0
 Multiplicity           Mult            ....    1
 Number of Electrons    NEL             ....   70
 Basis Dimension        Dim             ....  357

ORBITAL ENERGIES
----------------

  NO   OCC          E(Eh)            E(eV)
   0   2.0000     -20.541680      -558.9675
   1   2.0000     -15.550837      -423.1598
   2   2.0000     -11.278205      -306.8956
   3   2.0000     -11.265931      -306.5616
   4   2.0000     -11.257641      -306.3360
   5   2.0000     -11.254444      -306.2490
   6   2.0000     -11.223022      -305.3939
   7   2.0000     -11.212585      -305.1099
   8   2.0000     -11.207705      -304.9772
   9   2.0000      -1.367861       -37.2214
  10   2.0000      -1.256597       -34.1937
  11   2.0000      -1.065282       -28.9878
  12   2.0000      -1.019683       -27.7470
  13   2.0000      -0.942308       -25.6415
  14   2.0000      -0.894787       -24.3484
  15   2.0000      -0.853821       -23.2337
  16   2.0000      -0.779304       -21.2059
  17   2.0000      -0.748887       -20.3783
  18   2.0000      -0.707520       -19.2526
  19   2.0000      -0.664829       -18.0909
  20   2.0000      -0.646641       -17.5960
  21   2.0000      -0.634850       -17.2752
  22   2.0000      -0.583712       -15.8836
  23   2.0000      -0.567995       -15.4559
  24   2.0000      -0.546716       -14.8769
  25   2.0000      -0.537483       -14.6257
  26   2.0000      -0.524963       -14.2850
  27   2.0000      -0.508842       -13.8463
  28   2.0000      -0.497807       -13.5460
  29   2.0000      -0.477705       -12.9990
  30   2.0000      -0.458720       -12.4824
  31   2.0000      -0.451289       -12.2802
  32   2.0000      -0.438777       -11.9397
  33   2.0000      -0.402774       -10.9600
  34   2.0000      -0.382472       -10.4076
  35   0.0000       0.128139         3.4868
  36   0.0000       0.153066         4.1651
  37   0.0000       0.160031         4.3547
  38   0.0000       0.171325         4.6620
  39   0.0000       0.188332         5.1248

MULLIKEN ATOMIC CHARGES
-----------------------
   0 C :   -0.398796
   1 C :    0.111911
   2 O :   -0.294775
   3 C :   -0.106293
   4 C :   -0.162277
   5 C :   -0.215930
   6 C :   -0.057675
   7 N :   -0.400015
   8 C :   -0.048640
   9 H :    0.140559
  10 H :    0.137681
  11 H :    0.116363
  12 H :    0.067201
  13 H :    0.088387
  14 H :    0.123384
  15 H :    0.113855
  16 H :    0.116978
  17 H :    0.104715
  18 H :    0.119687
  19 H :    0.110547
  20 H :    0.214852
  21 H :    0.118282
Sum of atomic charges:   -0.0000000

LOEWDIN ATOMIC CHARGES
----------------------
   0 C :   -0.288166
   1 C :   -0.343041
   2 O :    0.193188
   3 C :   -0.319093
   4 C :   -0.271112
   5 C :   -0.257385
   6 C :   -0.260830
   7 N :    0.009927
   8 C :   -0.247006
   9 H :    0.130216
  10 H :    0.125597
  11 H :    0.122239
  12 H :    0.137131
  13 H :    0.119234
  14 H :    0.129638
  15 H :    0.140534
  16 H :    0.147705
  17 H :    0.142291
  18 H :    0.143888
  19 H :    0.138323
  20 H :    0.163710
  21 H :    0.143012

  Mayer bond orders larger than 0.1
B(  0-C ,  1-C ) :   0.9012 B(  0-C ,  9-H ) :   0.9410 B(  0-C , 10-H ) :   0.9394
B(  0-C , 11-H ) :   0.9328 B(  1-C ,  2-O ) :   0.9673 B(  1-C ,  8-C ) :   0.8907
B(  1-C , 12-H ) :   0.9516 B(  2-O ,  3-C ) :   0.9369 B(  3-C ,  4-C ) :   0.9350
B(  3-C , 13-H ) :   0.9333 B(  3-C , 14-H ) :   0.9330 B(  4-C ,  5-C ) :   0.9368
B(  4-C , 15-H ) :   0.9210 B(  4-C , 16-H ) :   0.9128 B(  5-C ,  6-C ) :   0.9212
B(  5-C , 17-H ) :   0.9321 B(  5-C , 18-H ) :   0.9228 B(  6-C ,  7-N ) :   0.9553
B(  6-C ,  8-C ) :   0.9170 B(  6-C , 19-H ) :   0.9325 B(  7-N ,  8-C ) :   0.8389
B(  7-N , 20-H ) :   0.8647 B(  8-C , 21-H ) :   0.9149

MP2 TOTAL ENERGY:     -403.643304627 Eh
FINAL SINGLE POINT ENERGY      -403.643304627233

DIPOLE MOMENT
-------------
                                X             Y             Z
Electronic contribution:      1.50811      -0.04096       0.12202
Nuclear contribution   :     -2.07698      -0.17992       0.59161
                        -----------------------------------------
Total Dipole Moment    :     -0.56887      -0.22088       0.71362
                        -----------------------------------------
Magnitude (a.u.)       :      0.93896
Magnitude (Debye)      :      2.38666

                             ****ORCA TERMINATED NORMALLY****
TOTAL RUN TIME: 0 days 0 hours 19 minutes 36 seconds 905 msec
