                         Program Version 3.0.3 - RELEASE   -
|  1> ! RI-MP2 RIJK def2-TZVP def2-TZVP/C def2-TZVP/JK TIGHTSCF
|  2> % maxcore 2000
|  3> % mp2 density relaxed end
|  4> *xyz 0 1
|  5>  C        0.5471221299     1.5310420195    -0.3804066977
|  6>  C        0.0792614321     0.1416076747     0.0594702588
|  7>  N        0.2087884241    -0.8588312504    -0.9911861106
|  8>  C        1.3205422065    -1.6590004373    -0.9148464369
|  9>  O        1.6831430921    -2.4566800578    -1.7494346765
| 10>  C        2.0033223718    -1.3304830435     0.4155235182
| 11>  C        0.9401060494    -0.5196386646     1.1921653974
| 12>  C        1.4695606072     0.4007416481     2.1843359063
| 13>  C        1.9183655552     1.1501767729     3.0103214620
| 14>  H        1.5986983674     1.5187196692    -0.6832293456
| 15>  H       -0.0465458549     1.8763363896    -1.2329773884
| 16>  H        0.4324792306     2.2518142702     0.4330125617
| 17>  H       -0.9635933131     0.2044156206     0.3892720685
| 18>  H       -0.3031896594    -0.8018415233    -1.8583975031
| 19>  H        2.3212727160    -2.2378417243     0.9301112328
| 20>  H        2.8981367315    -0.7338529615     0.2115534457
| 21>  H        0.2841326320    -1.2369797773     1.6998412957
| 22>  H        2.3148798215     1.8098348551     3.7421482814
| 23> *
| 24>
| 25>                          ****END OF INPUT****

CARTESIAN COORDINATES (ANGSTROEM)
---------------------------------
  C      0.547122    1.531042   -0.380407
  C      0.079261    0.141608    0.059470
  N      0.208788   -0.858831   -0.991186
  C      1.320542   -1.659000   -0.914846
  O      1.683143   -2.456680   -1.749435
  C      2.003322   -1.330483    0.415524
  C      0.940106   -0.519639    1.192165
  C      1.469561    0.400742    2.184336
  C      1.918366    1.150177    3.010321
  H      1.598698    1.518720   -0.683229
  H     -0.046546    1.876336   -1.232977
  H      0.432479    2.251814    0.433013
  H     -0.963593    0.204416    0.389272
  H     -0.303190   -0.801842   -1.858398
  H      2.321273   -2.237842    0.930111
  H      2.898137   -0.733853    0.211553
  H      0.284133   -1.236980    1.699841
  H      2.314880    1.809835    3.742148

 Total Charge           Charge          ....    0
 Multiplicity           Mult            ....    1
 Number of Electrons    NEL             ....   66
 Basis Dimension        Dim             ....  333

ORBITAL ENERGIES
----------------

  NO   OCC          E(Eh)            E(eV)
   0   2.0000     -20.518756      -558.3437
   1   2.0000     -15.584893      -424.0865
   2   2.0000     -11.349873      -308.8457
   3   2.0000     -11.293434      -307.3100
   4   2.0000     -11.277972      -306.8892
   5   2.0000     -11.249996      -306.1280
   6   2.0000     -11.246235      -306.0256
   7   2.0000     -11.235251      -305.7267
   8   2.0000     -11.230073      -305.5858
   9   2.0000      -1.383517       -37.6474
  10   2.0000      -1.258643       -34.2494
  11   2.0000      -1.103263       -30.0213
  12   2.0000      -1.028318       -27.9820
  13   2.0000      -1.019291       -27.7363
  14   2.0000      -0.926024       -25.1984
  15   2.0000      -0.841192       -22.8900
  16   2.0000      -0.798982       -21.7414
  17   2.0000      -0.727966       -19.8089
  18   2.0000      -0.698137       -18.9973
  19   2.0000      -0.681334       -18.5400
  20   2.0000      -0.639769       -17.4090
  21   2.0000      -0.607418       -16.5287
  22   2.0000      -0.599045       -16.3008
  23   2.0000      -0.587801       -15.9949
  24   2.0000      -0.574888       -15.6435
  25   2.0000      -0.566971       -15.4281
  26   2.0000      -0.539723       -14.6866
  27   2.0000      -0.505866       -13.7653
  28   2.0000      -0.494387       -13.4529
  29   2.0000      -0.428021       -11.6470
  30   2.0000      -0.401139       -10.9155
  31   2.0000      -0.394862       -10.7447
  32   2.0000      -0.392060       -10.6685
  33   0.0000       0.118415         3.2222
  34   0.0000       0.146709         3.9922
  35   0.0000       0.154321         4.1993
  36   0.0000       0.159835         4.3493
  37   0.0000       0.161697         4.4000

MULLIKEN ATOMIC CHARGES
-----------------------
   0 C :   -0.425278
   1 C :    0.088377
   2 N :   -0.310805
   3 C :    0.194315
   4 O :   -0.330924
   5 C :   -0.210562
   6 C :   -0.223246
   7 C :   -0.027281
   8 C :   -0.139356
   9 H :    0.139077
  10 H :    0.131508
  11 H :    0.143674
  12 H :    0.119034
  13 H :    0.237254
  14 H :    0.148271
  15 H :    0.140189
  16 H :    0.131209
  17 H :    0.194545
Sum of atomic charges:    0.0000000

LOEWDIN ATOMIC CHARGES
----------------------
   0 C :   -0.287297
   1 C :   -0.260094
   2 N :    0.139789
   3 C :   -0.447237
   4 O :    0.087336
   5 C :   -0.175990
   6 C :   -0.206076
   7 C :   -0.089890
   8 C :   -0.092126
   9 H :    0.129211
  10 H :    0.124367
  11 H :    0.132092
  12 H :    0.147542
  13 H :    0.185184
  14 H :    0.150838
  15 H :    0.156994
  16 H :    0.177127
  17 H :    0.128230

  Mayer bond orders larger than 0.1
B(  0-C ,  1-C ) :   0.9365 B(  0-C ,  9-H ) :   0.9329 B(  0-C , 10-H ) :   0.9332
B(  0-C , 11-H ) :   0.9309 B(  1-C ,  2-N ) :   0.8380 B(  1-C ,  6-C ) :   0.9072
B(  1-C , 12-H ) :   0.9181 B(  2-N ,  3-C ) :   1.1632 B(  2-N , 13-H ) :   0.8645
B(  3-C ,  4-O ) :   2.0246 B(  3-C ,  5-C ) :   0.9012 B(  5-C ,  6-C ) :   0.9046
B(  5-C , 14-H ) :   0.9159 B(  5-C , 15-H ) :   0.9101 B(  6-C ,  7-C ) :   1.1129
B(  6-C , 16-H ) :   0.9131 B(  7-C ,  8-C ) :   2.6073 B(  8-C , 17-H ) :   0.8907

MP2 TOTAL ENERGY:     -401.270932075 Eh
FINAL SINGLE POINT ENERGY      -401.270932074594

DIPOLE MOMENT
-------------
                                X             Y             Z
Electronic contribution:      0.80061      -4.90268      -0.73411
Nuclear contribution   :     -1.44185       6.02572       1.40668
                        -----------------------------------------
Total Dipole Moment    :     -0.64124       1.12304       0.67257
                        -----------------------------------------
Magnitude (a.u.)       :      1.45766
Magnitude (Debye)      :      3.70507

                             ****ORCA TERMINATED NORMALLY****
TOTAL RUN TIME: 0 days 0 hours 17 minutes 37 seconds 113 msec
