                         Program Version 3.0.3 - RELEASE   -
|  1> ! RI-MP2 RIJK def2-TZVP def2-TZVP/C def2-TZVP/JK TIGHTSCF
|  2> % maxcore 2000
|  3> % mp2 density relaxed end
|  4> *xyz 0 1
|  5>  O        0.0492234387    -0.0219791962    -0.1613823806
|  6>  C        0.0377042841     1.1692968540    -0.2064669387
|  7>  O        1.0559861592     1.9250761274     0.2584960922
|  8>  C        0.9533780433     3.3478107745     0.1614313651
|  9>  C        1.0402619281     3.9522610643     1.5674056180
| 10>  O        1.1280427081     5.3640434218     1.4733003802
| 11>  C        2.2272485103     5.7552762438     0.6915557734
| 12>  O        2.1376179714     5.2934025564    -0.6317377502
| 13>  C        2.1189929186     3.8767880255    -0.6819261513
| 14>  H       -0.7886632261     1.7765382375    -0.6242456904
| 15>  H        0.0027943695     3.6354257304    -0.3040854554
| 16>  H        0.1514927839     3.7185949160     2.1585971759
| 17>  H        1.9210540602     3.5337246655     2.0807712920
| 18>  H        2.2193266700     6.8453417970     0.6511687236
| 19>  H        3.1640131982     5.3890174669     1.1531183008
| 20>  H        3.0596934404     3.4540128353    -0.2935221900
| 21>  H        2.0167604717     3.5880831400    -1.7308434946
| 22> *
| 23>
| 24>                          ****END OF INPUT****

CARTESIAN COORDINATES (ANGSTROEM)
---------------------------------
  O      0.049223   -0.021979   -0.161382
  C      0.037704    1.169297   -0.206467
  O      1.055986    1.925076    0.258496
  C      0.953378    3.347811    0.161431
  C      1.040262    3.952261    1.567406
  O      1.128043    5.364043    1.473300
  C      2.227249    5.755276    0.691556
  O      2.137618    5.293403   -0.631738
  C      2.118993    3.876788   -0.681926
  H     -0.788663    1.776538   -0.624246
  H      0.002794    3.635426   -0.304085
  H      0.151493    3.718595    2.158597
  H      1.921054    3.533725    2.080771
  H      2.219327    6.845342    0.651169
  H      3.164013    5.389017    1.153118
  H      3.059693    3.454013   -0.293522
  H      2.016760    3.588083   -1.730843

 Total Charge           Charge          ....    0
 Multiplicity           Mult            ....    1
 Number of Electrons    NEL             ....   70
 Basis Dimension        Dim             ....  327

ORBITAL ENERGIES
----------------

  NO   OCC          E(Eh)            E(eV)
   0   2.0000     -20.623062      -561.1821
   1   2.0000     -20.583881      -560.1159
   2   2.0000     -20.583862      -560.1154
   3   2.0000     -20.561224      -559.4993
   4   2.0000     -11.394647      -310.0641
   5   2.0000     -11.344962      -308.7121
   6   2.0000     -11.320043      -308.0340
   7   2.0000     -11.302310      -307.5515
   8   2.0000     -11.302289      -307.5509
   9   2.0000      -1.476415       -40.1753
  10   2.0000      -1.445251       -39.3273
  11   2.0000      -1.385927       -37.7130
  12   2.0000      -1.368664       -37.2432
  13   2.0000      -1.084670       -29.5154
  14   2.0000      -0.946325       -25.7508
  15   2.0000      -0.941183       -25.6109
  16   2.0000      -0.862166       -23.4607
  17   2.0000      -0.832716       -22.6594
  18   2.0000      -0.753251       -20.4970
  19   2.0000      -0.724524       -19.7153
  20   2.0000      -0.702556       -19.1175
  21   2.0000      -0.697562       -18.9816
  22   2.0000      -0.668458       -18.1897
  23   2.0000      -0.660952       -17.9854
  24   2.0000      -0.615971       -16.7614
  25   2.0000      -0.603809       -16.4305
  26   2.0000      -0.594103       -16.1664
  27   2.0000      -0.590016       -16.0552
  28   2.0000      -0.547212       -14.8904
  29   2.0000      -0.511508       -13.9188
  30   2.0000      -0.510593       -13.8939
  31   2.0000      -0.495911       -13.4944
  32   2.0000      -0.468921       -12.7600
  33   2.0000      -0.456417       -12.4198
  34   2.0000      -0.434535       -11.8243
  35   0.0000       0.135308         3.6819
  36   0.0000       0.137161         3.7323
  37   0.0000       0.143079         3.8934
  38   0.0000       0.178162         4.8480
  39   0.0000       0.184041         5.0080

MULLIKEN ATOMIC CHARGES
-----------------------
   0 O :   -0.259828
   1 C :    0.192070
   2 O :   -0.207653
   3 C :    0.011485
   4 C :   -0.048228
   5 O :   -0.297733
   6 C :    0.043738
   7 O :   -0.297731
   8 C :   -0.048232
   9 H :    0.080302
  10 H :    0.091668
  11 H :    0.133760
  12 H :    0.117754
  13 H :    0.139862
  14 H :    0.097285
  15 H :    0.117746
  16 H :    0.133736
Sum of atomic charges:    0.0000000

LOEWDIN ATOMIC CHARGES
----------------------
   0 O :    0.128467
   1 C :   -0.445284
   2 O :    0.270779
   3 C :   -0.315560
   4 C :   -0.294116
   5 O :    0.164415
   6 C :   -0.392235
   7 O :    0.164412
   8 C :   -0.294141
   9 H :    0.104474
  10 H :    0.141854
  11 H :    0.135123
  12 H :    0.130189
  13 H :    0.127183
  14 H :    0.109134
  15 H :    0.130188
  16 H :    0.135117

  Mayer bond orders larger than 0.1
B(  0-O ,  1-C ) :   2.0361 B(  1-C ,  2-O ) :   1.0546 B(  1-C ,  9-H ) :   0.9147
B(  2-O ,  3-C ) :   0.8781 B(  3-C ,  4-C ) :   0.9216 B(  3-C ,  8-C ) :   0.9216
B(  3-C , 10-H ) :   0.9269 B(  4-C ,  5-O ) :   0.9163 B(  4-C , 11-H ) :   0.9225
B(  4-C , 12-H ) :   0.9316 B(  5-O ,  6-C ) :   0.9748 B(  6-C ,  7-O ) :   0.9748
B(  6-C , 13-H ) :   0.9274 B(  6-C , 14-H ) :   0.9398 B(  7-O ,  8-C ) :   0.9164
B(  8-C , 15-H ) :   0.9315 B(  8-C , 16-H ) :   0.9224

MP2 TOTAL ENERGY:     -495.351339598 Eh
FINAL SINGLE POINT ENERGY      -495.351339597811

DIPOLE MOMENT
-------------
                                X             Y             Z
Electronic contribution:     -1.88089      -3.47149      -0.78613
Nuclear contribution   :      2.01697       4.35339       0.82188
                        -----------------------------------------
Total Dipole Moment    :      0.13609       0.88190       0.03575
                        -----------------------------------------
Magnitude (a.u.)       :      0.89306
Magnitude (Debye)      :      2.26997

                             ****ORCA TERMINATED NORMALLY****
TOTAL RUN TIME: 0 days 0 hours 14 minutes 51 seconds 472 msec
