                         Program Version 3.0.3 - RELEASE   -
|  1> ! RI-MP2 RIJK def2-TZVP def2-TZVP/C def2-TZVP/JK TIGHTSCF
|  2> % maxcore 2000
|  3> % mp2 density relaxed end
|  4> *xyz 0 1
|  5>  C        0.0170046387     1.4352937342    -0.0121777540
|  6>  O       -0.1891981892     0.0511916796    -0.1549457637
|  7>  C        0.6800996120    -0.5393699197    -1.0943217462
|  8>  C        0.3979579598    -2.0351952183    -1.1404630344
|  9>  C        1.2975287397    -2.7625568206    -2.1314600595
| 10>  N        2.7361673263    -2.8851971629    -1.7437730456
| 11>  C        2.7607161609    -4.3543466957    -1.9787627558
| 12>  C        1.2343196684    -4.3020134731    -2.1527553043
| 13>  O        0.3573169159    -5.1072621439    -2.2324739278
| 14>  H        1.0390566827     1.6639683337     0.3301679864
| 15>  H       -0.1546509894     1.9751463167    -0.9575345436
| 16>  H       -0.6942674709     1.7977187856     0.7340029904
| 17>  H        0.5310934765    -0.0892547778    -2.0931426215
| 18>  H        1.7321059332    -0.3640611350    -0.8123032561
| 19>  H        0.5431811287    -2.4553042394    -0.1399699056
| 20>  H       -0.6479373664    -2.2025482388    -1.4211623854
| 21>  H        1.1462993338    -2.3637778767    -3.1478970509
| 22>  H        3.3672472919    -2.3692712193    -2.3448876715
| 23>  H        3.2700961696    -4.6868262162    -2.8939923102
| 24>  H        3.1341281178    -4.9468620724    -1.1364795507
| 25> *
| 26>
| 27>                          ****END OF INPUT****

CARTESIAN COORDINATES (ANGSTROEM)
---------------------------------
  C      0.017005    1.435294   -0.012178
  O     -0.189198    0.051192   -0.154946
  C      0.680100   -0.539370   -1.094322
  C      0.397958   -2.035195   -1.140463
  C      1.297529   -2.762557   -2.131460
  N      2.736167   -2.885197   -1.743773
  C      2.760716   -4.354347   -1.978763
  C      1.234320   -4.302013   -2.152755
  O      0.357317   -5.107262   -2.232474
  H      1.039057    1.663968    0.330168
  H     -0.154651    1.975146   -0.957535
  H     -0.694267    1.797719    0.734003
  H      0.531093   -0.089255   -2.093143
  H      1.732106   -0.364061   -0.812303
  H      0.543181   -2.455304   -0.139970
  H     -0.647937   -2.202548   -1.421162
  H      1.146299   -2.363778   -3.147897
  H      3.367247   -2.369271   -2.344888
  H      3.270096   -4.686826   -2.893992
  H      3.134128   -4.946862   -1.136480

 Total Charge           Charge          ....    0
 Multiplicity           Mult            ....    1
 Number of Electrons    NEL             ....   70
 Basis Dimension        Dim             ....  345

ORBITAL ENERGIES
----------------

  NO   OCC          E(Eh)            E(eV)
   0   2.0000     -20.562565      -559.5358
   1   2.0000     -20.557492      -559.3978
   2   2.0000     -15.564176      -423.5228
   3   2.0000     -11.338744      -308.5429
   4   2.0000     -11.279033      -306.9181
   5   2.0000     -11.277349      -306.8723
   6   2.0000     -11.273557      -306.7691
   7   2.0000     -11.272303      -306.7350
   8   2.0000     -11.228587      -305.5454
   9   2.0000      -1.406460       -38.2717
  10   2.0000      -1.379076       -37.5266
  11   2.0000      -1.250758       -34.0348
  12   2.0000      -1.056027       -28.7359
  13   2.0000      -0.956343       -26.0234
  14   2.0000      -0.948555       -25.8115
  15   2.0000      -0.891742       -24.2655
  16   2.0000      -0.827416       -22.5151
  17   2.0000      -0.735093       -20.0029
  18   2.0000      -0.701185       -19.0802
  19   2.0000      -0.676224       -18.4010
  20   2.0000      -0.664613       -18.0850
  21   2.0000      -0.652501       -17.7555
  22   2.0000      -0.630762       -17.1639
  23   2.0000      -0.623010       -16.9530
  24   2.0000      -0.600398       -16.3376
  25   2.0000      -0.562464       -15.3054
  26   2.0000      -0.553495       -15.0614
  27   2.0000      -0.525948       -14.3118
  28   2.0000      -0.514831       -14.0093
  29   2.0000      -0.512043       -13.9334
  30   2.0000      -0.497198       -13.5294
  31   2.0000      -0.480208       -13.0671
  32   2.0000      -0.426111       -11.5951
  33   2.0000      -0.402762       -10.9597
  34   2.0000      -0.400831       -10.9072
  35   0.0000       0.110728         3.0131
  36   0.0000       0.144288         3.9263
  37   0.0000       0.147369         4.0101
  38   0.0000       0.162061         4.4099
  39   0.0000       0.168950         4.5974

MULLIKEN ATOMIC CHARGES
-----------------------
   0 C :   -0.214076
   1 O :   -0.299378
   2 C :   -0.076877
   3 C :   -0.141477
   4 C :   -0.036407
   5 N :   -0.357136
   6 C :   -0.133257
   7 C :    0.120460
   8 O :   -0.243122
   9 H :    0.111243
  10 H :    0.109367
  11 H :    0.140076
  12 H :    0.080716
  13 H :    0.105855
  14 H :    0.112169
  15 H :    0.125924
  16 H :    0.120140
  17 H :    0.213635
  18 H :    0.129563
  19 H :    0.132582
Sum of atomic charges:   -0.0000000

LOEWDIN ATOMIC CHARGES
----------------------
   0 C :   -0.362288
   1 O :    0.135761
   2 C :   -0.331587
   3 C :   -0.241173
   4 C :   -0.247110
   5 N :   -0.008658
   6 C :   -0.244387
   7 C :   -0.298245
   8 O :    0.174499
   9 H :    0.101178
  10 H :    0.100453
  11 H :    0.113750
  12 H :    0.116541
  13 H :    0.121254
  14 H :    0.147552
  15 H :    0.149708
  16 H :    0.149274
  17 H :    0.158207
  18 H :    0.132379
  19 H :    0.132892

  Mayer bond orders larger than 0.1
B(  0-C ,  1-O ) :   0.9201 B(  0-C ,  9-H ) :   0.9369 B(  0-C , 10-H ) :   0.9373
B(  0-C , 11-H ) :   0.9395 B(  1-O ,  2-C ) :   0.9647 B(  2-C ,  3-C ) :   0.9363
B(  2-C , 12-H ) :   0.9184 B(  2-C , 13-H ) :   0.9275 B(  3-C ,  4-C ) :   0.8952
B(  3-C , 14-H ) :   0.9120 B(  3-C , 15-H ) :   0.9261 B(  4-C ,  5-N ) :   0.9949
B(  4-C ,  6-C ) :  -0.1078 B(  4-C ,  7-C ) :   0.8227 B(  4-C , 16-H ) :   0.8955
B(  5-N ,  6-C ) :   0.9644 B(  5-N , 17-H ) :   0.8771 B(  6-C ,  7-C ) :   0.9228
B(  6-C , 18-H ) :   0.9025 B(  6-C , 19-H ) :   0.9049 B(  7-C ,  8-O ) :   2.0639

MP2 TOTAL ENERGY:     -439.535133968 Eh
FINAL SINGLE POINT ENERGY      -439.535133967621

DIPOLE MOMENT
-------------
                                X             Y             Z
Electronic contribution:     -0.99507      -8.84909      -1.88642
Nuclear contribution   :      1.95233       9.68936       1.26737
                        -----------------------------------------
Total Dipole Moment    :      0.95726       0.84027      -0.61905
                        -----------------------------------------
Magnitude (a.u.)       :      1.41620
Magnitude (Debye)      :      3.59970

                             ****ORCA TERMINATED NORMALLY****
TOTAL RUN TIME: 0 days 0 hours 14 minutes 58 seconds 739 msec
