                         Program Version 3.0.3 - RELEASE   -
|  1> ! RI-MP2 RIJK def2-TZVP def2-TZVP/C def2-TZVP/JK TIGHTSCF
|  2> % maxcore 2000
|  3> % mp2 density relaxed end
|  4> *xyz 0 1
|  5>  O       -0.2036702401     0.1792434387     0.5941829126
|  6>  C       -0.0968063742     1.3277168038     0.2536895103
|  7>  C       -1.2487604184     2.3213831797     0.0762423827
|  8>  O       -0.6816310908     3.5426145604    -0.3496512975
|  9>  C        0.7166647292     3.5531721968    -0.0446507617
| 10>  C        1.0856090806     4.0833528162     1.3537784248
| 11>  C        2.4332719277     3.4031032690     1.6406991866
| 12>  C        2.2695672153     1.9642060339     1.0874434139
| 13>  C        1.2006043692     2.0891478006    -0.0273665725
| 14>  H       -1.9684007364     1.9672210443    -0.6704151457
| 15>  H       -1.7827233065     2.4154383072     1.0348879048
| 16>  H        1.1932702122     4.1561974928    -0.8225955654
| 17>  H        1.1205622073     5.1743922945     1.3998961049
| 18>  H        0.3300050864     3.7472726277     2.0754470665
| 19>  H        3.2315821824     3.9223783770     1.0971810032
| 20>  H        2.7045360575     3.4194214518     2.6994986555
| 21>  H        3.2104840994     1.5586771063     0.7098484561
| 22>  H        1.9190001800     1.2754262945     1.8624164707
| 23>  H        1.5684656993     1.7583813647    -1.0039367197
| 24> *
| 25>
| 26>                          ****END OF INPUT****

CARTESIAN COORDINATES (ANGSTROEM)
---------------------------------
  O     -0.203670    0.179243    0.594183
  C     -0.096806    1.327717    0.253690
  C     -1.248760    2.321383    0.076242
  O     -0.681631    3.542615   -0.349651
  C      0.716665    3.553172   -0.044651
  C      1.085609    4.083353    1.353778
  C      2.433272    3.403103    1.640699
  C      2.269567    1.964206    1.087443
  C      1.200604    2.089148   -0.027367
  H     -1.968401    1.967221   -0.670415
  H     -1.782723    2.415438    1.034888
  H      1.193270    4.156197   -0.822596
  H      1.120562    5.174392    1.399896
  H      0.330005    3.747273    2.075447
  H      3.231582    3.922378    1.097181
  H      2.704536    3.419421    2.699499
  H      3.210484    1.558677    0.709848
  H      1.919000    1.275426    1.862416
  H      1.568466    1.758381   -1.003937

 Total Charge           Charge          ....    0
 Multiplicity           Mult            ....    1
 Number of Electrons    NEL             ....   68
 Basis Dimension        Dim             ....  339

ORBITAL ENERGIES
----------------

  NO   OCC          E(Eh)            E(eV)
   0   2.0000     -20.567697      -559.6755
   1   2.0000     -20.554486      -559.3160
   2   2.0000     -11.335831      -308.4637
   3   2.0000     -11.290614      -307.2332
   4   2.0000     -11.290064      -307.2183
   5   2.0000     -11.244410      -305.9760
   6   2.0000     -11.235643      -305.7374
   7   2.0000     -11.233407      -305.6765
   8   2.0000     -11.230680      -305.6024
   9   2.0000      -1.406183       -38.2642
  10   2.0000      -1.386127       -37.7184
  11   2.0000      -1.133895       -30.8548
  12   2.0000      -1.021391       -27.7934
  13   2.0000      -0.982220       -26.7276
  14   2.0000      -0.954366       -25.9696
  15   2.0000      -0.812152       -22.0998
  16   2.0000      -0.797323       -21.6962
  17   2.0000      -0.754161       -20.5218
  18   2.0000      -0.703060       -19.1312
  19   2.0000      -0.665614       -18.1123
  20   2.0000      -0.653346       -17.7785
  21   2.0000      -0.634914       -17.2769
  22   2.0000      -0.622873       -16.9492
  23   2.0000      -0.589680       -16.0460
  24   2.0000      -0.581471       -15.8226
  25   2.0000      -0.549495       -14.9525
  26   2.0000      -0.529934       -14.4202
  27   2.0000      -0.521762       -14.1979
  28   2.0000      -0.493734       -13.4352
  29   2.0000      -0.484834       -13.1930
  30   2.0000      -0.480984       -13.0882
  31   2.0000      -0.476791       -12.9741
  32   2.0000      -0.423619       -11.5273
  33   2.0000      -0.399111       -10.8604
  34   0.0000       0.115433         3.1411
  35   0.0000       0.132951         3.6178
  36   0.0000       0.155415         4.2291
  37   0.0000       0.158937         4.3249
  38   0.0000       0.172366         4.6903

MULLIKEN ATOMIC CHARGES
-----------------------
   0 O :   -0.269522
   1 C :    0.053208
   2 C :   -0.035809
   3 O :   -0.322103
   4 C :    0.068363
   5 C :   -0.252416
   6 C :   -0.224242
   7 C :   -0.285020
   8 C :    0.009800
   9 H :    0.138197
  10 H :    0.116547
  11 H :    0.108283
  12 H :    0.132551
  13 H :    0.116196
  14 H :    0.116909
  15 H :    0.127239
  16 H :    0.126426
  17 H :    0.140807
  18 H :    0.134585
Sum of atomic charges:   -0.0000000

LOEWDIN ATOMIC CHARGES
----------------------
   0 O :    0.161836
   1 C :   -0.299167
   2 C :   -0.281943
   3 O :    0.169926
   4 C :   -0.271141
   5 C :   -0.235912
   6 C :   -0.252328
   7 C :   -0.217877
   8 C :   -0.190357
   9 H :    0.139858
  10 H :    0.135587
  11 H :    0.143715
  12 H :    0.135783
  13 H :    0.143478
  14 H :    0.137655
  15 H :    0.134399
  16 H :    0.136062
  17 H :    0.143590
  18 H :    0.166836

  Mayer bond orders larger than 0.1
B(  0-O ,  1-C ) :   2.0263 B(  1-C ,  2-C ) :   0.9309 B(  1-C ,  8-C ) :   0.8461
B(  2-C ,  3-O ) :   0.9578 B(  2-C ,  9-H ) :   0.9073 B(  2-C , 10-H ) :   0.9041
B(  3-O ,  4-C ) :   0.8916 B(  4-C ,  5-C ) :   0.9284 B(  4-C ,  8-C ) :   0.9272
B(  4-C , 11-H ) :   0.9194 B(  5-C ,  6-C ) :   0.9241 B(  5-C , 12-H ) :   0.9320
B(  5-C , 13-H ) :   0.9192 B(  6-C ,  7-C ) :   0.9175 B(  6-C , 14-H ) :   0.9287
B(  6-C , 15-H ) :   0.9293 B(  7-C ,  8-C ) :   0.8848 B(  7-C , 16-H ) :   0.9330
B(  7-C , 17-H ) :   0.9252 B(  8-C , 18-H ) :   0.8868

MP2 TOTAL ENERGY:     -422.356022772 Eh
FINAL SINGLE POINT ENERGY      -422.356022772305

DIPOLE MOMENT
-------------
                                X             Y             Z
Electronic contribution:     -4.73075      -3.59160      -3.01161
Nuclear contribution   :      5.29198       4.18629       3.05678
                        -----------------------------------------
Total Dipole Moment    :      0.56123       0.59469       0.04517
                        -----------------------------------------
Magnitude (a.u.)       :      0.81895
Magnitude (Debye)      :      2.08159

                             ****ORCA TERMINATED NORMALLY****
TOTAL RUN TIME: 0 days 0 hours 19 minutes 46 seconds 834 msec
