                         Program Version 3.0.3 - RELEASE   -
|  1> ! RI-MP2 RIJK def2-TZVP def2-TZVP/C def2-TZVP/JK TIGHTSCF
|  2> % maxcore 2000
|  3> % mp2 density relaxed end
|  4> *xyz 0 1
|  5>  C       -0.0841756625     1.6112047525    -0.0283250273
|  6>  C        0.1276178278     0.0930170545     0.0416827200
|  7>  C        0.7665074638    -0.5273088242    -1.2200321284
|  8>  C        0.6299363565    -2.0476421346    -1.4042797963
|  9>  O       -0.2246461949    -1.8387500536    -2.5833380156
| 10>  C       -0.1487646387    -0.4831178444    -2.4693378303
| 11>  O       -0.6651068166     0.3488872636    -3.1436271275
| 12>  C        2.1543708630     0.0185844806    -1.5039121316
| 13>  O        3.1409497475    -0.6657076226    -1.5954945041
| 14>  H        0.8608229804     2.1618126381    -0.0234824124
| 15>  H       -0.6342443766     1.8882721394    -0.9314516450
| 16>  H       -0.6595981470     1.9457364956     0.8392677982
| 17>  H        0.7490102053    -0.1673226092     0.9070537723
| 18>  H       -0.8394809027    -0.3992961563     0.1961025248
| 19>  H        1.5476853006    -2.5683366590    -1.6746263575
| 20>  H        0.0792254549    -2.5773899753    -0.6255035850
| 21>  H        2.2016809491     1.1186078449    -1.6314390443
| 22> *
| 23>
| 24>                          ****END OF INPUT****

CARTESIAN COORDINATES (ANGSTROEM)
---------------------------------
  C     -0.084176    1.611205   -0.028325
  C      0.127618    0.093017    0.041683
  C      0.766507   -0.527309   -1.220032
  C      0.629936   -2.047642   -1.404280
  O     -0.224646   -1.838750   -2.583338
  C     -0.148765   -0.483118   -2.469338
  O     -0.665107    0.348887   -3.143627
  C      2.154371    0.018584   -1.503912
  O      3.140950   -0.665708   -1.595495
  H      0.860823    2.161813   -0.023482
  H     -0.634244    1.888272   -0.931452
  H     -0.659598    1.945736    0.839268
  H      0.749010   -0.167323    0.907054
  H     -0.839481   -0.399296    0.196103
  H      1.547685   -2.568337   -1.674626
  H      0.079225   -2.577390   -0.625504
  H      2.201681    1.118608   -1.631439

 Total Charge           Charge          ....    0
 Multiplicity           Mult            ....    1
 Number of Electrons    NEL             ....   68
 Basis Dimension        Dim             ....  327

ORBITAL ENERGIES
----------------

  NO   OCC          E(Eh)            E(eV)
   0   2.0000     -20.615570      -560.9782
   1   2.0000     -20.584985      -560.1459
   2   2.0000     -20.568538      -559.6984
   3   2.0000     -11.400194      -310.2151
   4   2.0000     -11.359538      -309.1087
   5   2.0000     -11.316203      -307.9295
   6   2.0000     -11.290470      -307.2293
   7   2.0000     -11.269689      -306.6638
   8   2.0000     -11.239937      -305.8542
   9   2.0000      -1.479780       -40.2669
  10   2.0000      -1.423458       -38.7343
  11   2.0000      -1.395009       -37.9601
  12   2.0000      -1.128647       -30.7120
  13   2.0000      -1.021465       -27.7955
  14   2.0000      -0.939716       -25.5710
  15   2.0000      -0.880936       -23.9715
  16   2.0000      -0.861412       -23.4402
  17   2.0000      -0.744497       -20.2588
  18   2.0000      -0.726704       -19.7746
  19   2.0000      -0.701272       -19.0826
  20   2.0000      -0.695949       -18.9377
  21   2.0000      -0.674917       -18.3654
  22   2.0000      -0.635191       -17.2844
  23   2.0000      -0.613489       -16.6939
  24   2.0000      -0.594341       -16.1729
  25   2.0000      -0.581283       -15.8175
  26   2.0000      -0.568629       -15.4732
  27   2.0000      -0.551686       -15.0121
  28   2.0000      -0.539203       -14.6725
  29   2.0000      -0.527836       -14.3631
  30   2.0000      -0.502253       -13.6670
  31   2.0000      -0.474904       -12.9228
  32   2.0000      -0.457257       -12.4426
  33   2.0000      -0.433523       -11.7968
  34   0.0000       0.094887         2.5820
  35   0.0000       0.133929         3.6444
  36   0.0000       0.144384         3.9289
  37   0.0000       0.161580         4.3968
  38   0.0000       0.166809         4.5391

MULLIKEN ATOMIC CHARGES
-----------------------
   0 C :   -0.438060
   1 C :   -0.239395
   2 C :    0.116027
   3 C :   -0.077160
   4 O :   -0.223961
   5 C :    0.215724
   6 O :   -0.261735
   7 C :    0.056418
   8 O :   -0.258238
   9 H :    0.132305
  10 H :    0.167932
  11 H :    0.144765
  12 H :    0.137841
  13 H :    0.131959
  14 H :    0.151950
  15 H :    0.126349
  16 H :    0.117280
Sum of atomic charges:    0.0000000

LOEWDIN ATOMIC CHARGES
----------------------
   0 C :   -0.307434
   1 C :   -0.234798
   2 C :   -0.237962
   3 C :   -0.177414
   4 O :    0.246956
   5 C :   -0.430313
   6 O :    0.162048
   7 C :   -0.238090
   8 O :    0.151580
   9 H :    0.121104
  10 H :    0.132802
  11 H :    0.127247
  12 H :    0.145846
  13 H :    0.149586
  14 H :    0.133807
  15 H :    0.128188
  16 H :    0.126848

  Mayer bond orders larger than 0.1
B(  0-C ,  1-C ) :   0.9184 B(  0-C ,  9-H ) :   0.9363 B(  0-C , 10-H ) :   0.9306
B(  0-C , 11-H ) :   0.9353 B(  1-C ,  2-C ) :   0.8858 B(  1-C , 12-H ) :   0.9271
B(  1-C , 13-H ) :   0.9227 B(  2-C ,  3-C ) :   0.9278 B(  2-C ,  5-C ) :   0.8661
B(  2-C ,  7-C ) :   0.8266 B(  3-C ,  4-O ) :   0.8728 B(  3-C , 14-H ) :   0.9058
B(  3-C , 15-H ) :   0.9171 B(  4-O ,  5-C ) :   1.1212 B(  5-C ,  6-O ) :   2.0134
B(  7-C ,  8-O ) :   1.9743 B(  7-C , 16-H ) :   0.9374

MP2 TOTAL ENERGY:     -458.255848826 Eh
FINAL SINGLE POINT ENERGY      -458.255848826398

DIPOLE MOMENT
-------------
                                X             Y             Z
Electronic contribution:      1.56964      -4.11895      -7.46326
Nuclear contribution   :     -1.62302       4.17738       8.86749
                        -----------------------------------------
Total Dipole Moment    :     -0.05338       0.05843       1.40422
                        -----------------------------------------
Magnitude (a.u.)       :      1.40645
Magnitude (Debye)      :      3.57492

                             ****ORCA TERMINATED NORMALLY****
TOTAL RUN TIME: 0 days 0 hours 16 minutes 19 seconds 595 msec
