                         Program Version 3.0.3 - RELEASE   -
|  1> ! RI-MP2 RIJK def2-TZVP def2-TZVP/C def2-TZVP/JK TIGHTSCF
|  2> % maxcore 2000
|  3> % mp2 density relaxed end
|  4> *xyz 0 1
|  5>  C        0.0612456868     1.4845867079    -0.0115108101
|  6>  C        0.0257095647     0.0297162490     0.0107279446
|  7>  C        0.0017933491    -1.1750754186     0.0292014231
|  8>  C       -0.0049346648    -2.6078570118     0.0374593344
|  9>  C       -0.4603714639    -3.3873205852     1.2508102684
| 10>  C       -1.3445920325    -3.3800466166     0.0199756699
| 11>  C       -2.6605435577    -2.6223797431     0.0383142029
| 12>  C       -1.3468976126    -4.5796534318    -0.7800242193
| 13>  N       -1.3538052852    -5.5389751669    -1.4272068838
| 14>  H        1.0929160036     1.8523191413    -0.0374217129
| 15>  H       -0.4556906339     1.8837277108    -0.8911386453
| 16>  H       -0.4185297380     1.9077391581     0.8778189425
| 17>  H        0.7846022390    -3.0756081958    -0.5431394665
| 18>  H        0.0740046535    -4.2976788153     1.4941181600
| 19>  H       -0.8208000950    -2.8199418412     2.1008794570
| 20>  H       -2.5545443186    -1.7031686983     0.6177148340
| 21>  H       -2.9683238098    -2.3521360464    -0.9756532390
| 22>  H       -3.4493392546    -3.2336686762     0.4860389700
| 23> *
| 24>
| 25>                          ****END OF INPUT****

CARTESIAN COORDINATES (ANGSTROEM)
---------------------------------
  C      0.061246    1.484587   -0.011511
  C      0.025710    0.029716    0.010728
  C      0.001793   -1.175075    0.029201
  C     -0.004935   -2.607857    0.037459
  C     -0.460371   -3.387321    1.250810
  C     -1.344592   -3.380047    0.019976
  C     -2.660544   -2.622380    0.038314
  C     -1.346898   -4.579653   -0.780024
  N     -1.353805   -5.538975   -1.427207
  H      1.092916    1.852319   -0.037422
  H     -0.455691    1.883728   -0.891139
  H     -0.418530    1.907739    0.877819
  H      0.784602   -3.075608   -0.543139
  H      0.074005   -4.297679    1.494118
  H     -0.820800   -2.819942    2.100879
  H     -2.554544   -1.703169    0.617715
  H     -2.968324   -2.352136   -0.975653
  H     -3.449339   -3.233669    0.486039

 Total Charge           Charge          ....    0
 Multiplicity           Mult            ....    1
 Number of Electrons    NEL             ....   64
 Basis Dimension        Dim             ....  333

ORBITAL ENERGIES
----------------

  NO   OCC          E(Eh)            E(eV)
   0   2.0000     -15.567027      -423.6003
   1   2.0000     -11.297576      -307.4227
   2   2.0000     -11.284305      -307.0616
   3   2.0000     -11.271602      -306.7159
   4   2.0000     -11.264472      -306.5219
   5   2.0000     -11.256518      -306.3054
   6   2.0000     -11.242605      -305.9268
   7   2.0000     -11.239511      -305.8426
   8   2.0000     -11.233072      -305.6674
   9   2.0000      -1.226985       -33.3880
  10   2.0000      -1.186391       -32.2834
  11   2.0000      -1.068534       -29.0763
  12   2.0000      -1.007547       -27.4168
  13   2.0000      -0.972381       -26.4598
  14   2.0000      -0.879443       -23.9309
  15   2.0000      -0.870686       -23.6926
  16   2.0000      -0.724291       -19.7090
  17   2.0000      -0.703862       -19.1531
  18   2.0000      -0.638203       -17.3664
  19   2.0000      -0.604094       -16.4382
  20   2.0000      -0.598673       -16.2907
  21   2.0000      -0.595160       -16.1951
  22   2.0000      -0.586846       -15.9689
  23   2.0000      -0.576126       -15.6772
  24   2.0000      -0.572186       -15.5700
  25   2.0000      -0.544884       -14.8270
  26   2.0000      -0.504822       -13.7369
  27   2.0000      -0.501869       -13.6565
  28   2.0000      -0.456721       -12.4280
  29   2.0000      -0.431932       -11.7535
  30   2.0000      -0.379211       -10.3188
  31   2.0000      -0.362087        -9.8529
  32   0.0000       0.124119         3.3775
  33   0.0000       0.137702         3.7471
  34   0.0000       0.154607         4.2071
  35   0.0000       0.156953         4.2709
  36   0.0000       0.163815         4.4576

MULLIKEN ATOMIC CHARGES
-----------------------
   0 C :   -0.478462
   1 C :    0.070439
   2 C :   -0.013848
   3 C :   -0.267225
   4 C :   -0.252920
   5 C :    0.189612
   6 C :   -0.399489
   7 C :   -0.201060
   8 N :   -0.057713
   9 H :    0.166349
  10 H :    0.165691
  11 H :    0.162918
  12 H :    0.160223
  13 H :    0.158796
  14 H :    0.150050
  15 H :    0.147221
  16 H :    0.148914
  17 H :    0.150502
Sum of atomic charges:   -0.0000000

LOEWDIN ATOMIC CHARGES
----------------------
   0 C :   -0.292796
   1 C :   -0.090296
   2 C :   -0.070144
   3 C :   -0.154560
   4 C :   -0.137419
   5 C :   -0.227671
   6 C :   -0.237140
   7 C :   -0.153469
   8 N :    0.062901
   9 H :    0.143508
  10 H :    0.142094
  11 H :    0.141758
  12 H :    0.173412
  13 H :    0.144678
  14 H :    0.146190
  15 H :    0.137467
  16 H :    0.136796
  17 H :    0.134689

  Mayer bond orders larger than 0.1
B(  0-C ,  1-C ) :   0.8553 B(  0-C ,  9-H ) :   0.9460 B(  0-C , 10-H ) :   0.9457
B(  0-C , 11-H ) :   0.9459 B(  1-C ,  2-C ) :   2.6321 B(  1-C ,  3-C ) :  -0.1398
B(  2-C ,  3-C ) :   1.1273 B(  3-C ,  4-C ) :   0.8719 B(  3-C ,  5-C ) :   0.8028
B(  3-C , 12-H ) :   0.9340 B(  4-C ,  5-C ) :   0.8519 B(  4-C , 13-H ) :   0.9215
B(  4-C , 14-H ) :   0.9246 B(  5-C ,  6-C ) :   0.9340 B(  5-C ,  7-C ) :   0.9252
B(  6-C , 15-H ) :   0.9231 B(  6-C , 16-H ) :   0.9323 B(  6-C , 17-H ) :   0.9333
B(  7-C ,  8-N ) :   2.8626

MP2 TOTAL ENERGY:     -364.123348585 Eh
FINAL SINGLE POINT ENERGY      -364.123348585213

DIPOLE MOMENT
-------------
                                X             Y             Z
Electronic contribution:      1.38586      -7.49066      -2.68791
Nuclear contribution   :     -1.33850       9.03812       3.61498
                        -----------------------------------------
Total Dipole Moment    :      0.04736       1.54746       0.92707
                        -----------------------------------------
Magnitude (a.u.)       :      1.80453
Magnitude (Debye)      :      4.58675

                             ****ORCA TERMINATED NORMALLY****
TOTAL RUN TIME: 0 days 0 hours 16 minutes 50 seconds 315 msec
