                         Program Version 3.0.3 - RELEASE   -
|  1> ! RI-MP2 RIJK def2-TZVP def2-TZVP/C def2-TZVP/JK TIGHTSCF
|  2> % maxcore 2000
|  3> % mp2 density relaxed end
|  4> *xyz 0 1
|  5>  C        0.0976233030     1.4027763503     0.0149679477
|  6>  C        1.3514368172     0.6024280260    -0.0587479064
|  7>  N        0.0537768847    -0.0562027297     0.0346701325
|  8>  C       -0.2674367474    -0.6644105073     1.2923979940
|  9>  C       -1.5834966726    -1.3724684635     1.4728598619
| 10>  C       -2.3745457288    -1.7700603490     0.2235712277
| 11>  C       -1.4801158564    -2.7745274195    -0.4707185148
| 12>  C       -0.3551363839    -2.9981666711     0.2091602993
| 13>  C       -0.2826835480    -2.1765461078     1.4508153646
| 14>  H       -0.1015145330     1.9326663432     0.9453383277
| 15>  H       -0.3091339929     1.8770340394    -0.8739050322
| 16>  H        1.8764601828     0.4812091503    -1.0021151657
| 17>  H        1.9905236033     0.5961666489     0.8229060552
| 18>  H        0.0866818972    -0.1277356676     2.1790448797
| 19>  H       -2.1237588816    -1.2019822906     2.3969494122
| 20>  H       -3.3470948512    -2.2035738078     0.4905603573
| 21>  H       -2.5800410761    -0.9077575010    -0.4231370338
| 22>  H       -1.7316487472    -3.2095944581    -1.4314570564
| 23>  H        0.4434481354    -3.6648485855    -0.0954334760
| 24>  H        0.1639636854    -2.5901940996     2.3493112355
| 25> *
| 26>
| 27>                          ****END OF INPUT****

CARTESIAN COORDINATES (ANGSTROEM)
---------------------------------
  C      0.097623    1.402776    0.014968
  C      1.351437    0.602428   -0.058748
  N      0.053777   -0.056203    0.034670
  C     -0.267437   -0.664411    1.292398
  C     -1.583497   -1.372468    1.472860
  C     -2.374546   -1.770060    0.223571
  C     -1.480116   -2.774527   -0.470719
  C     -0.355136   -2.998167    0.209160
  C     -0.282684   -2.176546    1.450815
  H     -0.101515    1.932666    0.945338
  H     -0.309134    1.877034   -0.873905
  H      1.876460    0.481209   -1.002115
  H      1.990524    0.596167    0.822906
  H      0.086682   -0.127736    2.179045
  H     -2.123759   -1.201982    2.396949
  H     -3.347095   -2.203574    0.490560
  H     -2.580041   -0.907758   -0.423137
  H     -1.731649   -3.209594   -1.431457
  H      0.443448   -3.664849   -0.095433
  H      0.163964   -2.590194    2.349311

 Total Charge           Charge          ....    0
 Multiplicity           Mult            ....    1
 Number of Electrons    NEL             ....   66
 Basis Dimension        Dim             ....  345

ORBITAL ENERGIES
----------------

  NO   OCC          E(Eh)            E(eV)
   0   2.0000     -15.556579      -423.3160
   1   2.0000     -11.256854      -306.3146
   2   2.0000     -11.252372      -306.1926
   3   2.0000     -11.251358      -306.1650
   4   2.0000     -11.225188      -305.4529
   5   2.0000     -11.223594      -305.4095
   6   2.0000     -11.219295      -305.2925
   7   2.0000     -11.214404      -305.1594
   8   2.0000     -11.212370      -305.1041
   9   2.0000      -1.276540       -34.7364
  10   2.0000      -1.168149       -31.7870
  11   2.0000      -1.032286       -28.0899
  12   2.0000      -0.949774       -25.8447
  13   2.0000      -0.915237       -24.9049
  14   2.0000      -0.840315       -22.8661
  15   2.0000      -0.792586       -21.5674
  16   2.0000      -0.757970       -20.6254
  17   2.0000      -0.722338       -19.6558
  18   2.0000      -0.696280       -18.9468
  19   2.0000      -0.664310       -18.0768
  20   2.0000      -0.626213       -17.0401
  21   2.0000      -0.606224       -16.4962
  22   2.0000      -0.562142       -15.2967
  23   2.0000      -0.530169       -14.4266
  24   2.0000      -0.523735       -14.2515
  25   2.0000      -0.518113       -14.0986
  26   2.0000      -0.501862       -13.6564
  27   2.0000      -0.490122       -13.3369
  28   2.0000      -0.465123       -12.6566
  29   2.0000      -0.423604       -11.5269
  30   2.0000      -0.394622       -10.7382
  31   2.0000      -0.369343       -10.0503
  32   2.0000      -0.320167        -8.7122
  33   0.0000       0.146058         3.9744
  34   0.0000       0.160316         4.3624
  35   0.0000       0.165092         4.4924
  36   0.0000       0.169248         4.6055
  37   0.0000       0.176683         4.8078

MULLIKEN ATOMIC CHARGES
-----------------------
   0 C :   -0.174007
   1 C :   -0.182286
   2 N :   -0.190504
   3 C :   -0.104958
   4 C :   -0.090136
   5 C :   -0.163395
   6 C :   -0.152198
   7 C :   -0.227097
   8 C :   -0.023598
   9 H :    0.116286
  10 H :    0.129953
  11 H :    0.130377
  12 H :    0.116211
  13 H :    0.087631
  14 H :    0.126865
  15 H :    0.120308
  16 H :    0.113429
  17 H :    0.119147
  18 H :    0.121161
  19 H :    0.126811
Sum of atomic charges:   -0.0000000

LOEWDIN ATOMIC CHARGES
----------------------
   0 C :   -0.263151
   1 C :   -0.262001
   2 N :    0.130121
   3 C :   -0.239089
   4 C :   -0.160390
   5 C :   -0.219925
   6 C :   -0.150151
   7 C :   -0.146198
   8 C :   -0.165476
   9 H :    0.122024
  10 H :    0.123442
  11 H :    0.124179
  12 H :    0.122386
  13 H :    0.140050
  14 H :    0.141872
  15 H :    0.140170
  16 H :    0.146821
  17 H :    0.134404
  18 H :    0.138066
  19 H :    0.142844

  Mayer bond orders larger than 0.1
B(  0-C ,  1-C ) :   0.9526 B(  0-C ,  2-N ) :   0.8682 B(  0-C ,  9-H ) :   0.9206
B(  0-C , 10-H ) :   0.9271 B(  1-C ,  2-N ) :   0.8873 B(  1-C , 11-H ) :   0.9260
B(  1-C , 12-H ) :   0.9218 B(  2-N ,  3-C ) :   1.0101 B(  3-C ,  4-C ) :   0.8905
B(  3-C ,  8-C ) :   0.8517 B(  3-C , 13-H ) :   0.9144 B(  4-C ,  5-C ) :   0.9606
B(  4-C ,  8-C ) :   0.8569 B(  4-C , 14-H ) :   0.9254 B(  5-C ,  6-C ) :   0.9709
B(  5-C , 15-H ) :   0.9152 B(  5-C , 16-H ) :   0.8971 B(  6-C ,  7-C ) :   1.7957
B(  6-C , 17-H ) :   0.9264 B(  7-C ,  8-C ) :   0.9526 B(  7-C , 18-H ) :   0.9291
B(  8-C , 19-H ) :   0.9208

MP2 TOTAL ENERGY:     -365.299403245 Eh
FINAL SINGLE POINT ENERGY      -365.299403244930

DIPOLE MOMENT
-------------
                                X             Y             Z
Electronic contribution:     -0.01341      -2.01601       0.00231
Nuclear contribution   :      0.14482       2.35947       0.29437
                        -----------------------------------------
Total Dipole Moment    :      0.13141       0.34346       0.29668
                        -----------------------------------------
Magnitude (a.u.)       :      0.47250
Magnitude (Debye)      :      1.20100

                             ****ORCA TERMINATED NORMALLY****
TOTAL RUN TIME: 0 days 0 hours 19 minutes 14 seconds 944 msec
