                         Program Version 3.0.3 - RELEASE   -
|  1> ! RI-MP2 RIJK def2-TZVP def2-TZVP/C def2-TZVP/JK TIGHTSCF
|  2> % maxcore 2000
|  3> % mp2 density relaxed end
|  4> *xyz 0 1
|  5>  C        0.0006231433     1.5123882563     0.1087535674
|  6>  C        0.0034108619     0.0262050595    -0.0394439628
|  7>  C       -0.0025109943    -0.7894563369    -1.1606580446
|  8>  C       -0.0179192056    -0.3772074317    -2.6012095058
|  9>  C        0.0250709813    -2.1022281569    -0.6336289648
| 10>  N        0.0455179113    -2.1187649676     0.6949718821
| 11>  N        0.0357599880    -0.8141093529     1.0296669398
| 12>  H        1.0137205930     1.9191841694     0.2157517349
| 13>  H       -0.4472287328     1.9826892797    -0.7705376908
| 14>  H       -0.5762456459     1.8290150343     0.9843535903
| 15>  H        0.9900274679    -0.1908062304    -2.9923498611
| 16>  H       -0.4668239235    -1.1558488013    -3.2252047360
| 17>  H       -0.5967675805     0.5397357728    -2.7559357867
| 18>  H        0.0231093641    -3.0349292496    -1.1806442258
| 19>  H        0.0311609118    -0.5612071547     2.0035101639
| 20> *
| 21>
| 22>                          ****END OF INPUT****

CARTESIAN COORDINATES (ANGSTROEM)
---------------------------------
  C      0.000623    1.512388    0.108754
  C      0.003411    0.026205   -0.039444
  C     -0.002511   -0.789456   -1.160658
  C     -0.017919   -0.377207   -2.601210
  C      0.025071   -2.102228   -0.633629
  N      0.045518   -2.118765    0.694972
  N      0.035760   -0.814109    1.029667
  H      1.013721    1.919184    0.215752
  H     -0.447229    1.982689   -0.770538
  H     -0.576246    1.829015    0.984354
  H      0.990027   -0.190806   -2.992350
  H     -0.466824   -1.155849   -3.225205
  H     -0.596768    0.539736   -2.755936
  H      0.023109   -3.034929   -1.180644
  H      0.031161   -0.561207    2.003510

 Total Charge           Charge          ....    0
 Multiplicity           Mult            ....    1
 Number of Electrons    NEL             ....   52
 Basis Dimension        Dim             ....  265

ORBITAL ENERGIES
----------------

  NO   OCC          E(Eh)            E(eV)
   0   2.0000     -15.624221      -425.1567
   1   2.0000     -15.574630      -423.8072
   2   2.0000     -11.271407      -306.7106
   3   2.0000     -11.243209      -305.9433
   4   2.0000     -11.240251      -305.8628
   5   2.0000     -11.224342      -305.4299
   6   2.0000     -11.215394      -305.1864
   7   2.0000      -1.362918       -37.0869
   8   2.0000      -1.100089       -29.9349
   9   2.0000      -1.075280       -29.2599
  10   2.0000      -0.979014       -26.6403
  11   2.0000      -0.929206       -25.2850
  12   2.0000      -0.806852       -21.9556
  13   2.0000      -0.759523       -20.6677
  14   2.0000      -0.694071       -18.8866
  15   2.0000      -0.622788       -16.9469
  16   2.0000      -0.597354       -16.2548
  17   2.0000      -0.589743       -16.0477
  18   2.0000      -0.566490       -15.4150
  19   2.0000      -0.558798       -15.2057
  20   2.0000      -0.554619       -15.0920
  21   2.0000      -0.540186       -14.6992
  22   2.0000      -0.515613       -14.0306
  23   2.0000      -0.444298       -12.0899
  24   2.0000      -0.351709        -9.5705
  25   2.0000      -0.320518        -8.7217
  26   0.0000       0.126271         3.4360
  27   0.0000       0.151391         4.1196
  28   0.0000       0.155610         4.2344
  29   0.0000       0.172715         4.6998
  30   0.0000       0.194805         5.3009

MULLIKEN ATOMIC CHARGES
-----------------------
   0 C :   -0.426539
   1 C :    0.039834
   2 C :    0.023814
   3 C :   -0.405876
   4 C :   -0.130875
   5 N :   -0.228174
   6 N :   -0.103543
   7 H :    0.152219
   8 H :    0.145723
   9 H :    0.138879
  10 H :    0.144483
  11 H :    0.142757
  12 H :    0.131449
  13 H :    0.126521
  14 H :    0.249328
Sum of atomic charges:   -0.0000000

LOEWDIN ATOMIC CHARGES
----------------------
   0 C :   -0.275641
   1 C :   -0.247654
   2 C :   -0.207339
   3 C :   -0.273896
   4 C :   -0.261815
   5 N :    0.014775
   6 N :    0.140998
   7 H :    0.133069
   8 H :    0.136290
   9 H :    0.131056
  10 H :    0.129729
  11 H :    0.132593
  12 H :    0.127660
  13 H :    0.133317
  14 H :    0.186857

  Mayer bond orders larger than 0.1
B(  0-C ,  1-C ) :   0.8588 B(  0-C ,  7-H ) :   0.9288 B(  0-C ,  8-H ) :   0.9478
B(  0-C ,  9-H ) :   0.9433 B(  1-C ,  2-C ) :   1.4064 B(  1-C ,  5-N ) :   0.1265
B(  1-C ,  6-N ) :   1.2020 B(  2-C ,  3-C ) :   0.8629 B(  2-C ,  4-C ) :   1.2814
B(  3-C , 10-H ) :   0.9282 B(  3-C , 11-H ) :   0.9473 B(  3-C , 12-H ) :   0.9458
B(  4-C ,  5-N ) :   1.5413 B(  4-C , 13-H ) :   0.9432 B(  5-N ,  6-N ) :   1.0546
B(  6-N , 14-H ) :   0.8739

MP2 TOTAL ENERGY:     -304.194440932 Eh
FINAL SINGLE POINT ENERGY      -304.194440931521

DIPOLE MOMENT
-------------
                                X             Y             Z
Electronic contribution:      0.11358      -4.86160       4.41888
Nuclear contribution   :     -0.12168       5.96190      -4.45170
                        -----------------------------------------
Total Dipole Moment    :     -0.00809       1.10030      -0.03282
                        -----------------------------------------
Magnitude (a.u.)       :      1.10082
Magnitude (Debye)      :      2.79806

                             ****ORCA TERMINATED NORMALLY****
TOTAL RUN TIME: 0 days 0 hours 8 minutes 27 seconds 277 msec
