                         Program Version 3.0.3 - RELEASE   -
|  1> ! RI-MP2 RIJK def2-TZVP def2-TZVP/C def2-TZVP/JK TIGHTSCF
|  2> % maxcore 2000
|  3> % mp2 density relaxed end
|  4> *xyz 0 1
|  5>  O        0.2309814563     1.2610374139    -0.5240951902
|  6>  C        0.0454466434    -0.0458572711    -0.0042073373
|  7>  C        0.4343726385    -0.1761369459     1.5006611135
|  8>  O       -0.5948472967    -0.8759330006     2.1897720872
|  9>  C       -1.7627883145    -0.9604011312     1.3886601064
| 10>  C       -2.8683319898     0.0993696044     1.5381138931
| 11>  C       -2.3416464761     1.4895753396     1.3311508394
| 12>  C       -2.5419556388     0.6244237681     0.1254951860
| 13>  C       -1.4389147875    -0.4382778118    -0.0329124119
| 14>  H        1.1765038683     1.4304176474    -0.5794818325
| 15>  H        0.6243068757    -0.7693131202    -0.5952179788
| 16>  H        1.3696346531    -0.7320958910     1.6422659585
| 17>  H        0.5746928434     0.8324367919     1.9148186150
| 18>  H       -2.1482986552    -1.9818846667     1.4500083350
| 19>  H       -3.8346427157    -0.0834038340     1.9921618117
| 20>  H       -3.0893748083     2.2677647197     1.4510511189
| 21>  H       -1.3533185333     1.7871229162     1.6595541618
| 22>  H       -3.2269651435     0.9000352138    -0.6658200880
| 23>  H       -1.6620369992    -1.1485045125    -0.8294970378
| 24> *
| 25>
| 26>                          ****END OF INPUT****

CARTESIAN COORDINATES (ANGSTROEM)
---------------------------------
  O      0.230981    1.261037   -0.524095
  C      0.045447   -0.045857   -0.004207
  C      0.434373   -0.176137    1.500661
  O     -0.594847   -0.875933    2.189772
  C     -1.762788   -0.960401    1.388660
  C     -2.868332    0.099370    1.538114
  C     -2.341646    1.489575    1.331151
  C     -2.541956    0.624424    0.125495
  C     -1.438915   -0.438278   -0.032912
  H      1.176504    1.430418   -0.579482
  H      0.624307   -0.769313   -0.595218
  H      1.369635   -0.732096    1.642266
  H      0.574693    0.832437    1.914819
  H     -2.148299   -1.981885    1.450008
  H     -3.834643   -0.083404    1.992162
  H     -3.089375    2.267765    1.451051
  H     -1.353319    1.787123    1.659554
  H     -3.226965    0.900035   -0.665820
  H     -1.662037   -1.148505   -0.829497

 Total Charge           Charge          ....    0
 Multiplicity           Mult            ....    1
 Number of Electrons    NEL             ....   68
 Basis Dimension        Dim             ....  339

ORBITAL ENERGIES
----------------

  NO   OCC          E(Eh)            E(eV)
   0   2.0000     -20.561618      -559.5101
   1   2.0000     -20.548868      -559.1631
   2   2.0000     -11.285097      -307.0831
   3   2.0000     -11.277786      -306.8841
   4   2.0000     -11.272616      -306.7435
   5   2.0000     -11.233162      -305.6699
   6   2.0000     -11.230553      -305.5989
   7   2.0000     -11.227007      -305.5024
   8   2.0000     -11.223584      -305.4092
   9   2.0000      -1.380054       -37.5532
  10   2.0000      -1.361269       -37.0420
  11   2.0000      -1.180180       -32.1143
  12   2.0000      -1.024167       -27.8690
  13   2.0000      -0.981432       -26.7061
  14   2.0000      -0.863626       -23.5005
  15   2.0000      -0.840835       -22.8803
  16   2.0000      -0.774196       -21.0669
  17   2.0000      -0.729649       -19.8548
  18   2.0000      -0.722946       -19.6724
  19   2.0000      -0.692491       -18.8436
  20   2.0000      -0.654234       -17.8026
  21   2.0000      -0.639048       -17.3894
  22   2.0000      -0.595266       -16.1980
  23   2.0000      -0.582180       -15.8419
  24   2.0000      -0.575017       -15.6470
  25   2.0000      -0.550704       -14.9854
  26   2.0000      -0.527356       -14.3501
  27   2.0000      -0.514503       -14.0003
  28   2.0000      -0.477982       -13.0066
  29   2.0000      -0.457302       -12.4438
  30   2.0000      -0.441000       -12.0002
  31   2.0000      -0.417479       -11.3602
  32   2.0000      -0.401414       -10.9230
  33   2.0000      -0.367786       -10.0080
  34   0.0000       0.128914         3.5079
  35   0.0000       0.149765         4.0753
  36   0.0000       0.170352         4.6355
  37   0.0000       0.172365         4.6903
  38   0.0000       0.188201         5.1212

MULLIKEN ATOMIC CHARGES
-----------------------
   0 O :   -0.445474
   1 C :   -0.027098
   2 C :   -0.062281
   3 O :   -0.328229
   4 C :    0.086181
   5 C :   -0.152729
   6 C :   -0.240774
   7 C :   -0.132430
   8 C :   -0.041023
   9 H :    0.315229
  10 H :    0.089822
  11 H :    0.106314
  12 H :    0.095462
  13 H :    0.100648
  14 H :    0.131312
  15 H :    0.128755
  16 H :    0.129484
  17 H :    0.128241
  18 H :    0.118592
Sum of atomic charges:   -0.0000000

LOEWDIN ATOMIC CHARGES
----------------------
   0 O :   -0.010541
   1 C :   -0.320034
   2 C :   -0.293586
   3 O :    0.168295
   4 C :   -0.246379
   5 C :   -0.162089
   6 C :   -0.197736
   7 C :   -0.151991
   8 C :   -0.166550
   9 H :    0.174546
  10 H :    0.133696
  11 H :    0.120006
  12 H :    0.118242
  13 H :    0.138624
  14 H :    0.133387
  15 H :    0.142200
  16 H :    0.132906
  17 H :    0.135371
  18 H :    0.151635

  Mayer bond orders larger than 0.1
B(  0-O ,  1-C ) :   1.0865 B(  0-O ,  9-H ) :   0.8454 B(  1-C ,  2-C ) :   0.9222
B(  1-C ,  8-C ) :   0.8761 B(  1-C , 10-H ) :   0.9410 B(  2-C ,  3-O ) :   0.9447
B(  2-C , 11-H ) :   0.9234 B(  2-C , 12-H ) :   0.9169 B(  3-O ,  4-C ) :   0.9497
B(  4-C ,  5-C ) :   0.9035 B(  4-C ,  8-C ) :   1.0100 B(  4-C , 13-H ) :   0.9440
B(  5-C ,  6-C ) :   0.8816 B(  5-C ,  7-C ) :   0.8319 B(  5-C , 14-H ) :   0.9281
B(  6-C ,  7-C ) :   0.8905 B(  6-C , 15-H ) :   0.9315 B(  6-C , 16-H ) :   0.9172
B(  7-C ,  8-C ) :   0.9394 B(  7-C , 17-H ) :   0.9249 B(  8-C , 18-H ) :   0.9186

MP2 TOTAL ENERGY:     -422.282914123 Eh
FINAL SINGLE POINT ENERGY      -422.282914122805

DIPOLE MOMENT
-------------
                                X             Y             Z
Electronic contribution:      0.49641      -1.24980       0.29719
Nuclear contribution   :     -0.17038       1.17465      -0.78211
                        -----------------------------------------
Total Dipole Moment    :      0.32604      -0.07516      -0.48491
                        -----------------------------------------
Magnitude (a.u.)       :      0.58914
Magnitude (Debye)      :      1.49748

                             ****ORCA TERMINATED NORMALLY****
TOTAL RUN TIME: 0 days 0 hours 18 minutes 10 seconds 728 msec
