                         Program Version 3.0.3 - RELEASE   -
|  1> ! RI-MP2 RIJK def2-TZVP def2-TZVP/C def2-TZVP/JK TIGHTSCF
|  2> % maxcore 2000
|  3> % mp2 density relaxed end
|  4> *xyz 0 1
|  5>  C       -0.0901305616     1.4453298745     0.0908769189
|  6>  C       -0.0097264831    -0.0337643918    -0.0285428947
|  7>  N        0.0748880408    -0.7533824025    -1.1018954044
|  8>  C        0.1143812311    -2.0740992420    -0.6533438214
|  9>  C        0.2003847256    -3.2245149270    -1.5998703422
| 10>  C        0.0539260261    -2.0731196840     0.7047150419
| 11>  C        0.0653550316    -3.1240130139     1.7682749319
| 12>  O        0.9614942798    -4.1894130242     1.4835255782
| 13>  O       -0.0221411933    -0.7608833349     1.1172054683
| 14>  H        0.7459680055     1.8409000389     0.6770384184
| 15>  H       -0.0635794848     1.8822241121    -0.9075074498
| 16>  H       -1.0153132009     1.7512130911     0.5904759750
| 17>  H        1.0349608374    -3.0894394979    -2.2958138232
| 18>  H        0.3428667840    -4.1591812293    -1.0545451791
| 19>  H       -0.7103313236    -3.3026070303    -2.2042279900
| 20>  H        0.2883825806    -2.6397673506     2.7308624186
| 21>  H       -0.9169380666    -3.5999784072     1.8697754187
| 22>  H        1.8258472513    -3.8002713208     1.3110617847
| 23> *
| 24>
| 25>                          ****END OF INPUT****

CARTESIAN COORDINATES (ANGSTROEM)
---------------------------------
  C     -0.090131    1.445330    0.090877
  C     -0.009726   -0.033764   -0.028543
  N      0.074888   -0.753382   -1.101895
  C      0.114381   -2.074099   -0.653344
  C      0.200385   -3.224515   -1.599870
  C      0.053926   -2.073120    0.704715
  C      0.065355   -3.124013    1.768275
  O      0.961494   -4.189413    1.483526
  O     -0.022141   -0.760883    1.117205
  H      0.745968    1.840900    0.677038
  H     -0.063579    1.882224   -0.907507
  H     -1.015313    1.751213    0.590476
  H      1.034961   -3.089439   -2.295814
  H      0.342867   -4.159181   -1.054545
  H     -0.710331   -3.302607   -2.204228
  H      0.288383   -2.639767    2.730862
  H     -0.916938   -3.599978    1.869775
  H      1.825847   -3.800271    1.311062

 Total Charge           Charge          ....    0
 Multiplicity           Mult            ....    1
 Number of Electrons    NEL             ....   68
 Basis Dimension        Dim             ....  333

ORBITAL ENERGIES
----------------

  NO   OCC          E(Eh)            E(eV)
   0   2.0000     -20.628343      -561.3257
   1   2.0000     -20.566646      -559.6469
   2   2.0000     -15.553207      -423.2243
   3   2.0000     -11.335326      -308.4499
   4   2.0000     -11.295690      -307.3713
   5   2.0000     -11.281897      -306.9960
   6   2.0000     -11.260065      -306.4020
   7   2.0000     -11.244158      -305.9691
   8   2.0000     -11.221309      -305.3473
   9   2.0000      -1.478492       -40.2318
  10   2.0000      -1.370696       -37.2985
  11   2.0000      -1.227305       -33.3967
  12   2.0000      -1.082517       -29.4568
  13   2.0000      -0.996819       -27.1248
  14   2.0000      -0.979925       -26.6651
  15   2.0000      -0.891474       -24.2583
  16   2.0000      -0.807738       -21.9797
  17   2.0000      -0.774725       -21.0813
  18   2.0000      -0.709319       -19.3015
  19   2.0000      -0.675246       -18.3744
  20   2.0000      -0.668532       -18.1917
  21   2.0000      -0.623377       -16.9629
  22   2.0000      -0.610626       -16.6160
  23   2.0000      -0.586616       -15.9626
  24   2.0000      -0.576091       -15.6762
  25   2.0000      -0.572674       -15.5832
  26   2.0000      -0.562170       -15.2974
  27   2.0000      -0.542622       -14.7655
  28   2.0000      -0.530513       -14.4360
  29   2.0000      -0.518239       -14.1020
  30   2.0000      -0.475158       -12.9297
  31   2.0000      -0.444364       -12.0917
  32   2.0000      -0.437682       -11.9099
  33   2.0000      -0.320560        -8.7229
  34   0.0000       0.127037         3.4569
  35   0.0000       0.142351         3.8736
  36   0.0000       0.152600         4.1525
  37   0.0000       0.174146         4.7388
  38   0.0000       0.179211         4.8766

MULLIKEN ATOMIC CHARGES
-----------------------
   0 C :   -0.431886
   1 C :    0.270521
   2 N :   -0.283684
   3 C :    0.062624
   4 C :   -0.440253
   5 C :    0.006207
   6 C :    0.011543
   7 O :   -0.468510
   8 O :   -0.217186
   9 H :    0.148828
  10 H :    0.165453
  11 H :    0.150043
  12 H :    0.144598
  13 H :    0.159327
  14 H :    0.143889
  15 H :    0.127973
  16 H :    0.131127
  17 H :    0.319387
Sum of atomic charges:    0.0000000

LOEWDIN ATOMIC CHARGES
----------------------
   0 C :   -0.269797
   1 C :   -0.366942
   2 N :    0.139050
   3 C :   -0.254250
   4 C :   -0.272718
   5 C :   -0.246762
   6 C :   -0.312868
   7 O :   -0.039994
   8 O :    0.356099
   9 H :    0.136721
  10 H :    0.143645
  11 H :    0.137196
  12 H :    0.134177
  13 H :    0.134749
  14 H :    0.133749
  15 H :    0.131381
  16 H :    0.140022
  17 H :    0.176540

  Mayer bond orders larger than 0.1
B(  0-C ,  1-C ) :   0.8622 B(  0-C ,  9-H ) :   0.9307 B(  0-C , 10-H ) :   0.9517
B(  0-C , 11-H ) :   0.9305 B(  1-C ,  2-N ) :   1.6775 B(  1-C ,  8-O ) :   1.0717
B(  2-N ,  3-C ) :   1.1855 B(  3-C ,  4-C ) :   0.8560 B(  3-C ,  5-C ) :   1.6043
B(  4-C , 12-H ) :   0.9366 B(  4-C , 13-H ) :   0.9455 B(  4-C , 14-H ) :   0.9314
B(  5-C ,  6-C ) :   0.8931 B(  5-C ,  8-O ) :   1.0426 B(  6-C ,  7-O ) :   0.9030
B(  6-C , 15-H ) :   0.9349 B(  6-C , 16-H ) :   0.9244 B(  7-O , 17-H ) :   0.8398

MP2 TOTAL ENERGY:     -438.405251982 Eh
FINAL SINGLE POINT ENERGY      -438.405251981748

DIPOLE MOMENT
-------------
                                X             Y             Z
Electronic contribution:      0.12930       0.40323       1.78053
Nuclear contribution   :      0.00866       0.01784      -1.31448
                        -----------------------------------------
Total Dipole Moment    :      0.13796       0.42107       0.46605
                        -----------------------------------------
Magnitude (a.u.)       :      0.64307
Magnitude (Debye)      :      1.63454

                             ****ORCA TERMINATED NORMALLY****
TOTAL RUN TIME: 0 days 0 hours 16 minutes 5 seconds 911 msec
