                         Program Version 3.0.3 - RELEASE   -
|  1> ! RI-MP2 RIJK def2-TZVP def2-TZVP/C def2-TZVP/JK TIGHTSCF
|  2> % maxcore 2000
|  3> % mp2 density relaxed end
|  4> *xyz 0 1
|  5>  C        0.0445416112     1.4132244437     0.0416674471
|  6>  O       -0.0184748388     0.0087272162     0.0033757261
|  7>  C        0.6569573419    -0.5984901675     1.0785246924
|  8>  C        0.5855513922    -2.0849942845     0.9647335039
|  9>  C        0.0797072066    -2.8076856308    -0.0385544070
| 10>  C        0.2018029455    -4.2991448358     0.2024571645
| 11>  C        0.9510133632    -4.3747415793     1.5289218882
| 12>  N        2.3098132365    -3.7903880809     1.4866692706
| 13>  C        1.1674047806    -2.9840621016     2.0100202208
| 14>  H        1.0826521223     1.7786155881    -0.0093873324
| 15>  H       -0.5045652049     1.7888532125    -0.8250544381
| 16>  H       -0.4158684140     1.8193082298     0.9568234525
| 17>  H        1.7156367145    -0.2772177692     1.1030431827
| 18>  H        0.2212758382    -0.2724469309     2.0429753556
| 19>  H       -0.3409243792    -2.3869234160    -0.9427401627
| 20>  H       -0.7814701022    -4.7837113974     0.2708738057
| 21>  H        0.7508857483    -4.8030285020    -0.6022288084
| 22>  H        0.7616655057    -5.1939659257     2.2141822677
| 23>  H        2.8329339247    -4.1591229562     2.2801058154
| 24>  H        1.1605952679    -2.7101341125     3.0607895756
| 25> *
| 26>
| 27>                          ****END OF INPUT****

CARTESIAN COORDINATES (ANGSTROEM)
---------------------------------
  C      0.044542    1.413224    0.041667
  O     -0.018475    0.008727    0.003376
  C      0.656957   -0.598490    1.078525
  C      0.585551   -2.084994    0.964734
  C      0.079707   -2.807686   -0.038554
  C      0.201803   -4.299145    0.202457
  C      0.951013   -4.374742    1.528922
  N      2.309813   -3.790388    1.486669
  C      1.167405   -2.984062    2.010020
  H      1.082652    1.778616   -0.009387
  H     -0.504565    1.788853   -0.825054
  H     -0.415868    1.819308    0.956823
  H      1.715637   -0.277218    1.103043
  H      0.221276   -0.272447    2.042975
  H     -0.340924   -2.386923   -0.942740
  H     -0.781470   -4.783711    0.270874
  H      0.750886   -4.803029   -0.602229
  H      0.761666   -5.193966    2.214182
  H      2.832934   -4.159123    2.280106
  H      1.160595   -2.710134    3.060790

 Total Charge           Charge          ....    0
 Multiplicity           Mult            ....    1
 Number of Electrons    NEL             ....   68
 Basis Dimension        Dim             ....  345

ORBITAL ENERGIES
----------------

  NO   OCC          E(Eh)            E(eV)
   0   2.0000     -20.555679      -559.3485
   1   2.0000     -15.555651      -423.2908
   2   2.0000     -11.280342      -306.9537
   3   2.0000     -11.270799      -306.6940
   4   2.0000     -11.257675      -306.3369
   5   2.0000     -11.255775      -306.2852
   6   2.0000     -11.223108      -305.3963
   7   2.0000     -11.222937      -305.3917
   8   2.0000     -11.214030      -305.1493
   9   2.0000      -1.378240       -37.5038
  10   2.0000      -1.265324       -34.4312
  11   2.0000      -1.086020       -29.5521
  12   2.0000      -1.003783       -27.3143
  13   2.0000      -0.932305       -25.3693
  14   2.0000      -0.883404       -24.0386
  15   2.0000      -0.869300       -23.6548
  16   2.0000      -0.778079       -21.1726
  17   2.0000      -0.717505       -19.5243
  18   2.0000      -0.709207       -19.2985
  19   2.0000      -0.665011       -18.0959
  20   2.0000      -0.650513       -17.7014
  21   2.0000      -0.645133       -17.5550
  22   2.0000      -0.585871       -15.9424
  23   2.0000      -0.565427       -15.3860
  24   2.0000      -0.558104       -15.1868
  25   2.0000      -0.539982       -14.6937
  26   2.0000      -0.513077       -13.9615
  27   2.0000      -0.508117       -13.8266
  28   2.0000      -0.482656       -13.1337
  29   2.0000      -0.472568       -12.8592
  30   2.0000      -0.461695       -12.5634
  31   2.0000      -0.426232       -11.5984
  32   2.0000      -0.378546       -10.3008
  33   2.0000      -0.328259        -8.9324
  34   0.0000       0.137847         3.7510
  35   0.0000       0.146458         3.9853
  36   0.0000       0.159162         4.3310
  37   0.0000       0.171282         4.6608
  38   0.0000       0.178993         4.8706

MULLIKEN ATOMIC CHARGES
-----------------------
   0 C :   -0.221753
   1 O :   -0.292521
   2 C :   -0.094072
   3 C :    0.105143
   4 C :   -0.258574
   5 C :   -0.079051
   6 C :   -0.094575
   7 N :   -0.377212
   8 C :   -0.097683
   9 H :    0.112585
  10 H :    0.140133
  11 H :    0.109569
  12 H :    0.110022
  13 H :    0.099014
  14 H :    0.136550
  15 H :    0.109444
  16 H :    0.116678
  17 H :    0.131011
  18 H :    0.212366
  19 H :    0.132926
Sum of atomic charges:    0.0000000

LOEWDIN ATOMIC CHARGES
----------------------
   0 C :   -0.360177
   1 O :    0.146713
   2 C :   -0.291962
   3 C :   -0.157287
   4 C :   -0.112639
   5 C :   -0.221529
   6 C :   -0.236228
   7 N :    0.000821
   8 C :   -0.208266
   9 H :    0.101784
  10 H :    0.113869
  11 H :    0.101097
  12 H :    0.131802
  13 H :    0.127502
  14 H :    0.141854
  15 H :    0.141039
  16 H :    0.146800
  17 H :    0.132717
  18 H :    0.166127
  19 H :    0.135965

  Mayer bond orders larger than 0.1
B(  0-C ,  1-O ) :   0.9175 B(  0-C ,  9-H ) :   0.9366 B(  0-C , 10-H ) :   0.9402
B(  0-C , 11-H ) :   0.9359 B(  1-O ,  2-C ) :   0.9932 B(  2-C ,  3-C ) :   0.9452
B(  2-C , 12-H ) :   0.9216 B(  2-C , 13-H ) :   0.9159 B(  3-C ,  4-C ) :   1.7391
B(  3-C ,  8-C ) :   0.8848 B(  4-C ,  5-C ) :   0.9470 B(  4-C , 14-H ) :   0.9225
B(  5-C ,  6-C ) :   0.9519 B(  5-C , 15-H ) :   0.9110 B(  5-C , 16-H ) :   0.8935
B(  6-C ,  7-N ) :   0.9583 B(  6-C ,  8-C ) :   0.9283 B(  6-C , 17-H ) :   0.9257
B(  7-N ,  8-C ) :   0.9474 B(  7-N , 18-H ) :   0.8693 B(  8-C , 19-H ) :   0.9112

MP2 TOTAL ENERGY:     -402.418787555 Eh
FINAL SINGLE POINT ENERGY      -402.418787555266

DIPOLE MOMENT
-------------
                                X             Y             Z
Electronic contribution:      0.63446      -3.42119       0.08185
Nuclear contribution   :     -0.75190       3.55297       0.70466
                        -----------------------------------------
Total Dipole Moment    :     -0.11744       0.13178       0.78651
                        -----------------------------------------
Magnitude (a.u.)       :      0.80607
Magnitude (Debye)      :      2.04887

                             ****ORCA TERMINATED NORMALLY****
TOTAL RUN TIME: 0 days 0 hours 17 minutes 10 seconds 119 msec
