                         Program Version 3.0.3 - RELEASE   -
|  1> ! RI-MP2 RIJK def2-TZVP def2-TZVP/C def2-TZVP/JK TIGHTSCF
|  2> % maxcore 2000
|  3> % mp2 density relaxed end
|  4> *xyz 0 1
|  5>  C        0.3073093032     1.5340097632     0.1127182508
|  6>  C       -0.0082272189     0.0402919496    -0.0126684271
|  7>  C        0.7065464224    -0.6185369541    -1.2284247000
|  8>  C        1.3057152710    -1.9423535773    -0.7099771234
|  9>  C        2.4453509829    -2.5105423034    -1.5527672093
| 10>  C        1.6753323811    -1.5963545475     0.7410738948
| 11>  O        2.8596744080    -0.7983152520     0.7009338710
| 12>  C        0.4619108635    -0.7877711892     1.2220926364
| 13>  H        1.3820884885     1.6823905074     0.2619256037
| 14>  H        0.0142975566     2.0789828714    -0.7914275918
| 15>  H       -0.2200249149     1.9861727305     0.9602114588
| 16>  H       -1.0926445245    -0.0714071397    -0.1209115296
| 17>  H        0.0323194750    -0.7743993392    -2.0759160908
| 18>  H        1.5173895270     0.0300761157    -1.5777265163
| 19>  H        0.5010917742    -2.6886053510    -0.6501087059
| 20>  H        3.2855833577    -1.8123198577    -1.5834594487
| 21>  H        2.8105373084    -3.4582898750    -1.1422533930
| 22>  H        2.1153773070    -2.6983164510    -2.5799603534
| 23>  H        1.8482201224    -2.4967697633     1.3496239851
| 24>  H        3.0355125862    -0.4879087805     1.5941328317
| 25>  H        0.7076661586    -0.1566205640     2.0841879190
| 26>  H       -0.3234296153    -1.4781217329     1.5504864382
| 27> *
| 28>
| 29>                          ****END OF INPUT****

CARTESIAN COORDINATES (ANGSTROEM)
---------------------------------
  C      0.307309    1.534010    0.112718
  C     -0.008227    0.040292   -0.012668
  C      0.706546   -0.618537   -1.228425
  C      1.305715   -1.942354   -0.709977
  C      2.445351   -2.510542   -1.552767
  C      1.675332   -1.596355    0.741074
  O      2.859674   -0.798315    0.700934
  C      0.461911   -0.787771    1.222093
  H      1.382088    1.682391    0.261926
  H      0.014298    2.078983   -0.791428
  H     -0.220025    1.986173    0.960211
  H     -1.092645   -0.071407   -0.120912
  H      0.032319   -0.774399   -2.075916
  H      1.517390    0.030076   -1.577727
  H      0.501092   -2.688605   -0.650109
  H      3.285583   -1.812320   -1.583459
  H      2.810537   -3.458290   -1.142253
  H      2.115377   -2.698316   -2.579960
  H      1.848220   -2.496770    1.349624
  H      3.035513   -0.487909    1.594133
  H      0.707666   -0.156621    2.084188
  H     -0.323430   -1.478122    1.550486

 Total Charge           Charge          ....    0
 Multiplicity           Mult            ....    1
 Number of Electrons    NEL             ....   64
 Basis Dimension        Dim             ....  332

ORBITAL ENERGIES
----------------

  NO   OCC          E(Eh)            E(eV)
   0   2.0000     -20.549705      -559.1859
   1   2.0000     -11.270635      -306.6896
   2   2.0000     -11.221209      -305.3446
   3   2.0000     -11.218120      -305.2606
   4   2.0000     -11.215764      -305.1965
   5   2.0000     -11.206880      -304.9547
   6   2.0000     -11.206158      -304.9351
   7   2.0000     -11.202123      -304.8253
   8   2.0000      -1.356455       -36.9110
   9   2.0000      -1.116485       -30.3811
  10   2.0000      -1.021979       -27.8095
  11   2.0000      -0.968043       -26.3418
  12   2.0000      -0.915378       -24.9087
  13   2.0000      -0.863492       -23.4968
  14   2.0000      -0.760010       -20.6809
  15   2.0000      -0.752729       -20.4828
  16   2.0000      -0.696572       -18.9547
  17   2.0000      -0.644522       -17.5383
  18   2.0000      -0.610140       -16.6028
  19   2.0000      -0.597181       -16.2501
  20   2.0000      -0.576300       -15.6819
  21   2.0000      -0.559299       -15.2193
  22   2.0000      -0.547422       -14.8961
  23   2.0000      -0.528198       -14.3730
  24   2.0000      -0.520080       -14.1521
  25   2.0000      -0.509458       -13.8631
  26   2.0000      -0.473359       -12.8808
  27   2.0000      -0.462203       -12.5772
  28   2.0000      -0.447046       -12.1647
  29   2.0000      -0.444269       -12.0892
  30   2.0000      -0.434573       -11.8253
  31   2.0000      -0.421147       -11.4600
  32   0.0000       0.127087         3.4582
  33   0.0000       0.155079         4.2199
  34   0.0000       0.158174         4.3041
  35   0.0000       0.168961         4.5977
  36   0.0000       0.189857         5.1663

MULLIKEN ATOMIC CHARGES
-----------------------
   0 C :   -0.455089
   1 C :    0.069150
   2 C :   -0.307579
   3 C :   -0.000927
   4 C :   -0.415044
   5 C :    0.070979
   6 O :   -0.481823
   7 C :   -0.317711
   8 H :    0.135167
   9 H :    0.128913
  10 H :    0.124394
  11 H :    0.089522
  12 H :    0.118729
  13 H :    0.116823
  14 H :    0.086539
  15 H :    0.145777
  16 H :    0.122286
  17 H :    0.128120
  18 H :    0.092129
  19 H :    0.310862
  20 H :    0.124024
  21 H :    0.114758
Sum of atomic charges:   -0.0000000

LOEWDIN ATOMIC CHARGES
----------------------
   0 C :   -0.304583
   1 C :   -0.256502
   2 C :   -0.210120
   3 C :   -0.259294
   4 C :   -0.294728
   5 C :   -0.320288
   6 O :   -0.017752
   7 C :   -0.225239
   8 H :    0.123681
   9 H :    0.122066
  10 H :    0.118927
  11 H :    0.144638
  12 H :    0.132146
  13 H :    0.144369
  14 H :    0.155435
  15 H :    0.128353
  16 H :    0.122570
  17 H :    0.122569
  18 H :    0.129294
  19 H :    0.171599
  20 H :    0.133751
  21 H :    0.139110

  Mayer bond orders larger than 0.1
B(  0-C ,  1-C ) :   0.8871 B(  0-C ,  8-H ) :   0.9400 B(  0-C ,  9-H ) :   0.9405
B(  0-C , 10-H ) :   0.9402 B(  1-C ,  2-C ) :   0.9285 B(  1-C ,  7-C ) :   0.8797
B(  1-C , 11-H ) :   0.9344 B(  2-C ,  3-C ) :   0.9430 B(  2-C , 12-H ) :   0.9269
B(  2-C , 13-H ) :   0.9193 B(  3-C ,  4-C ) :   0.8976 B(  3-C ,  5-C ) :   0.8856
B(  3-C , 14-H ) :   0.9226 B(  4-C , 15-H ) :   0.9359 B(  4-C , 16-H ) :   0.9375
B(  4-C , 17-H ) :   0.9412 B(  5-C ,  6-O ) :   0.9467 B(  5-C ,  7-C ) :   0.9630
B(  5-C , 18-H ) :   0.9357 B(  6-O , 19-H ) :   0.8461 B(  7-C , 20-H ) :   0.9351
B(  7-C , 21-H ) :   0.9201

MP2 TOTAL ENERGY:     -349.630090264 Eh
FINAL SINGLE POINT ENERGY      -349.630090263957

DIPOLE MOMENT
-------------
                                X             Y             Z
Electronic contribution:      1.59107      -1.18818       2.01995
Nuclear contribution   :     -1.92513       1.08872      -1.54307
                        -----------------------------------------
Total Dipole Moment    :     -0.33405      -0.09947       0.47688
                        -----------------------------------------
Magnitude (a.u.)       :      0.59068
Magnitude (Debye)      :      1.50138

                             ****ORCA TERMINATED NORMALLY****
TOTAL RUN TIME: 0 days 0 hours 15 minutes 18 seconds 670 msec
