                         Program Version 3.0.3 - RELEASE   -
|  1> ! RI-MP2 RIJK def2-TZVP def2-TZVP/C def2-TZVP/JK TIGHTSCF
|  2> % maxcore 2000
|  3> % mp2 density relaxed end
|  4> *xyz 0 1
|  5>  C        0.1184852773     1.6026676778     0.1286810189
|  6>  C       -0.2348044464     0.1365327241    -0.1481918495
|  7>  C        0.6075046638    -0.5149851168    -1.2424509611
|  8>  C        0.5201030741     0.1764812134    -2.5926572519
|  9>  O        2.0269021661    -0.5798690167    -0.8016509530
| 10>  C        2.0050783058    -1.9540812793    -0.7758339422
| 11>  N        2.8793722552    -2.7793312258    -0.4138182553
| 12>  C        0.5913166526    -2.0791538164    -1.3021043779
| 13>  C       -0.3955980432    -2.9162389800    -0.4987783929
| 14>  H        1.1871639462     1.7062502688     0.3376495479
| 15>  H       -0.1285572873     2.2535186378    -0.7149236624
| 16>  H       -0.4339086997     1.9691020421     0.9986645217
| 17>  H       -0.1050190867    -0.4374771912     0.7747150521
| 18>  H       -1.2926471621     0.0467258399    -0.4262234690
| 19>  H        0.8479371513     1.2170445198    -2.5291910463
| 20>  H        1.1523168706    -0.3326679128    -3.3252605334
| 21>  H       -0.5120802503     0.1640418290    -2.9593520002
| 22>  H        3.7270955408    -2.3043973228    -0.0978828565
| 23>  H        0.5968621634    -2.4213557383    -2.3421640905
| 24>  H       -0.4147261554    -2.6360513461     0.5570707791
| 25>  H       -1.4104632791    -2.8256858365    -0.8989274657
| 26>  H       -0.1029945070    -3.9685765100    -0.5524670720
| 27> *
| 28>
| 29>                          ****END OF INPUT****

CARTESIAN COORDINATES (ANGSTROEM)
---------------------------------
  C      0.118485    1.602668    0.128681
  C     -0.234804    0.136533   -0.148192
  C      0.607505   -0.514985   -1.242451
  C      0.520103    0.176481   -2.592657
  O      2.026902   -0.579869   -0.801651
  C      2.005078   -1.954081   -0.775834
  N      2.879372   -2.779331   -0.413818
  C      0.591317   -2.079154   -1.302104
  C     -0.395598   -2.916239   -0.498778
  H      1.187164    1.706250    0.337650
  H     -0.128557    2.253519   -0.714924
  H     -0.433909    1.969102    0.998665
  H     -0.105019   -0.437477    0.774715
  H     -1.292647    0.046726   -0.426223
  H      0.847937    1.217045   -2.529191
  H      1.152317   -0.332668   -3.325261
  H     -0.512080    0.164042   -2.959352
  H      3.727096   -2.304397   -0.097883
  H      0.596862   -2.421356   -2.342164
  H     -0.414726   -2.636051    0.557071
  H     -1.410463   -2.825686   -0.898927
  H     -0.102995   -3.968577   -0.552467

 Total Charge           Charge          ....    0
 Multiplicity           Mult            ....    1
 Number of Electrons    NEL             ....   70
 Basis Dimension        Dim             ....  357

ORBITAL ENERGIES
----------------

  NO   OCC          E(Eh)            E(eV)
   0   2.0000     -20.580308      -560.0187
   1   2.0000     -15.528851      -422.5615
   2   2.0000     -11.330003      -308.3050
   3   2.0000     -11.306481      -307.6650
   4   2.0000     -11.249844      -306.1238
   5   2.0000     -11.234640      -305.7101
   6   2.0000     -11.229409      -305.5678
   7   2.0000     -11.228976      -305.5560
   8   2.0000     -11.220752      -305.3322
   9   2.0000      -1.424101       -38.7518
  10   2.0000      -1.189029       -32.3551
  11   2.0000      -1.094646       -29.7868
  12   2.0000      -1.042974       -28.3808
  13   2.0000      -0.991750       -26.9869
  14   2.0000      -0.909374       -24.7453
  15   2.0000      -0.882725       -24.0202
  16   2.0000      -0.787756       -21.4359
  17   2.0000      -0.718223       -19.5438
  18   2.0000      -0.696379       -18.9494
  19   2.0000      -0.663225       -18.0473
  20   2.0000      -0.650378       -17.6977
  21   2.0000      -0.619082       -16.8461
  22   2.0000      -0.598209       -16.2781
  23   2.0000      -0.573661       -15.6101
  24   2.0000      -0.570211       -15.5162
  25   2.0000      -0.551036       -14.9945
  26   2.0000      -0.548633       -14.9291
  27   2.0000      -0.525818       -14.3082
  28   2.0000      -0.516195       -14.0464
  29   2.0000      -0.504454       -13.7269
  30   2.0000      -0.481049       -13.0900
  31   2.0000      -0.474899       -12.9227
  32   2.0000      -0.454088       -12.3564
  33   2.0000      -0.426826       -11.6145
  34   2.0000      -0.393115       -10.6972
  35   0.0000       0.121947         3.3183
  36   0.0000       0.147547         4.0150
  37   0.0000       0.160878         4.3777
  38   0.0000       0.173618         4.7244
  39   0.0000       0.181534         4.9398

MULLIKEN ATOMIC CHARGES
-----------------------
   0 C :   -0.431322
   1 C :   -0.192015
   2 C :    0.243193
   3 C :   -0.441153
   4 O :   -0.289222
   5 C :    0.061933
   6 N :   -0.365639
   7 C :   -0.019180
   8 C :   -0.411702
   9 H :    0.150909
  10 H :    0.129726
  11 H :    0.139597
  12 H :    0.115771
  13 H :    0.115689
  14 H :    0.149585
  15 H :    0.142888
  16 H :    0.134861
  17 H :    0.224771
  18 H :    0.120955
  19 H :    0.129729
  20 H :    0.132794
  21 H :    0.157835
Sum of atomic charges:   -0.0000000

LOEWDIN ATOMIC CHARGES
----------------------
   0 C :   -0.311521
   1 C :   -0.250659
   2 C :   -0.279734
   3 C :   -0.266067
   4 O :    0.243963
   5 C :   -0.389561
   6 N :   -0.060905
   7 C :   -0.184565
   8 C :   -0.282168
   9 H :    0.128641
  10 H :    0.119841
  11 H :    0.123457
  12 H :    0.145538
  13 H :    0.145235
  14 H :    0.131230
  15 H :    0.131774
  16 H :    0.133198
  17 H :    0.170919
  18 H :    0.163845
  19 H :    0.126012
  20 H :    0.125382
  21 H :    0.136144

  Mayer bond orders larger than 0.1
B(  0-C ,  1-C ) :   0.9104 B(  0-C ,  9-H ) :   0.9358 B(  0-C , 10-H ) :   0.9409
B(  0-C , 11-H ) :   0.9394 B(  1-C ,  2-C ) :   0.9296 B(  1-C , 12-H ) :   0.9298
B(  1-C , 13-H ) :   0.9217 B(  2-C ,  3-C ) :   0.9069 B(  2-C ,  4-O ) :   0.8195
B(  2-C ,  7-C ) :   0.8658 B(  3-C , 14-H ) :   0.9387 B(  3-C , 15-H ) :   0.9315
B(  3-C , 16-H ) :   0.9290 B(  4-O ,  5-C ) :   1.0866 B(  5-C ,  6-N ) :   2.1146
B(  5-C ,  7-C ) :   0.9183 B(  6-N , 17-H ) :   0.8472 B(  7-C ,  8-C ) :   0.9035
B(  7-C , 18-H ) :   0.9149 B(  8-C , 19-H ) :   0.9338 B(  8-C , 20-H ) :   0.9373
B(  8-C , 21-H ) :   0.9314

MP2 TOTAL ENERGY:     -403.675429924 Eh
FINAL SINGLE POINT ENERGY      -403.675429923728

DIPOLE MOMENT
-------------
                                X             Y             Z
Electronic contribution:      7.08114      -3.99724      -0.05323
Nuclear contribution   :     -8.03119       4.63941      -0.21065
                        -----------------------------------------
Total Dipole Moment    :     -0.95005       0.64216      -0.26388
                        -----------------------------------------
Magnitude (a.u.)       :      1.17670
Magnitude (Debye)      :      2.99092

                             ****ORCA TERMINATED NORMALLY****
TOTAL RUN TIME: 0 days 0 hours 20 minutes 56 seconds 6 msec
