                         Program Version 3.0.3 - RELEASE   -
|  1> ! RI-MP2 RIJK def2-TZVP def2-TZVP/C def2-TZVP/JK TIGHTSCF
|  2> % maxcore 2000
|  3> % mp2 density relaxed end
|  4> *xyz 0 1
|  5>  C       -0.0135709478     1.4535595118    -0.0224811631
|  6>  C        0.0135290103     0.0008282131     0.0136040722
|  7>  C        0.0307613927    -1.2022704319     0.0382794419
|  8>  C        0.0757176220    -2.6393309494     0.0585019819
|  9>  C       -0.5856166030    -3.4195009023     1.1386428659
| 10>  O       -1.1590883701    -3.3482888750    -0.1553525919
| 11>  C        1.2284629214    -3.2402877434    -0.5972620512
| 12>  N        2.1524034488    -3.7107628084    -1.1066502952
| 13>  H        0.8402738476     1.8446116098    -0.5854368566
| 14>  H       -0.9275649536     1.8140966073    -0.5061067795
| 15>  H        0.0240545203     1.8771797251     0.9865657389
| 16>  H       -0.1678159146    -4.3835679954     1.4220874321
| 17>  H       -1.1003832741    -2.8626054413     1.9186511845
| 18> *
| 19>
| 20>                          ****END OF INPUT****

CARTESIAN COORDINATES (ANGSTROEM)
---------------------------------
  C     -0.013571    1.453560   -0.022481
  C      0.013529    0.000828    0.013604
  C      0.030761   -1.202270    0.038279
  C      0.075718   -2.639331    0.058502
  C     -0.585617   -3.419501    1.138643
  O     -1.159088   -3.348289   -0.155353
  C      1.228463   -3.240288   -0.597262
  N      2.152403   -3.710763   -1.106650
  H      0.840274    1.844612   -0.585437
  H     -0.927565    1.814097   -0.506107
  H      0.024055    1.877180    0.986566
  H     -0.167816   -4.383568    1.422087
  H     -1.100383   -2.862605    1.918651

 Total Charge           Charge          ....    0
 Multiplicity           Mult            ....    1
 Number of Electrons    NEL             ....   56
 Basis Dimension        Dim             ....  278

ORBITAL ENERGIES
----------------

  NO   OCC          E(Eh)            E(eV)
   0   2.0000     -20.616617      -561.0067
   1   2.0000     -15.587219      -424.1498
   2   2.0000     -11.376379      -309.5670
   3   2.0000     -11.329305      -308.2861
   4   2.0000     -11.287938      -307.1604
   5   2.0000     -11.266941      -306.5891
   6   2.0000     -11.264377      -306.5193
   7   2.0000     -11.249108      -306.1038
   8   2.0000      -1.462277       -39.7906
   9   2.0000      -1.230870       -33.4937
  10   2.0000      -1.097395       -29.8616
  11   2.0000      -1.035086       -28.1661
  12   2.0000      -0.963982       -26.2313
  13   2.0000      -0.928844       -25.2751
  14   2.0000      -0.805671       -21.9234
  15   2.0000      -0.729560       -19.8523
  16   2.0000      -0.661300       -17.9949
  17   2.0000      -0.635198       -17.2846
  18   2.0000      -0.620128       -16.8745
  19   2.0000      -0.609035       -16.5727
  20   2.0000      -0.605895       -16.4872
  21   2.0000      -0.571039       -15.5388
  22   2.0000      -0.549229       -14.9453
  23   2.0000      -0.507385       -13.8066
  24   2.0000      -0.484176       -13.1751
  25   2.0000      -0.460794       -12.5388
  26   2.0000      -0.408214       -11.1081
  27   2.0000      -0.391217       -10.6456
  28   0.0000       0.120165         3.2699
  29   0.0000       0.125297         3.4095
  30   0.0000       0.135566         3.6890
  31   0.0000       0.155472         4.2306
  32   0.0000       0.180373         4.9082

MULLIKEN ATOMIC CHARGES
-----------------------
   0 C :   -0.472534
   1 C :    0.122697
   2 C :   -0.022317
   3 C :    0.135160
   4 C :   -0.041419
   5 O :   -0.288146
   6 C :   -0.181236
   7 N :   -0.047112
   8 H :    0.173418
   9 H :    0.172315
  10 H :    0.168084
  11 H :    0.142671
  12 H :    0.138419
Sum of atomic charges:   -0.0000000

LOEWDIN ATOMIC CHARGES
----------------------
   0 C :   -0.283364
   1 C :   -0.056334
   2 C :   -0.030370
   3 C :   -0.307773
   4 C :   -0.198487
   5 O :    0.210325
   6 C :   -0.123871
   7 N :    0.087917
   8 H :    0.147321
   9 H :    0.147179
  10 H :    0.144816
  11 H :    0.131400
  12 H :    0.131241

  Mayer bond orders larger than 0.1
B(  0-C ,  1-C ) :   0.8532 B(  0-C ,  8-H ) :   0.9438 B(  0-C ,  9-H ) :   0.9397
B(  0-C , 10-H ) :   0.9427 B(  1-C ,  2-C ) :   2.6177 B(  1-C ,  3-C ) :  -0.1451
B(  2-C ,  3-C ) :   1.1513 B(  3-C ,  4-C ) :   0.9348 B(  3-C ,  5-O ) :   0.9075
B(  3-C ,  6-C ) :   0.9393 B(  4-C ,  5-O ) :   0.8972 B(  4-C , 11-H ) :   0.9057
B(  4-C , 12-H ) :   0.9125 B(  6-C ,  7-N ) :   2.8285

MP2 TOTAL ENERGY:     -360.783627049 Eh
FINAL SINGLE POINT ENERGY      -360.783627049181

DIPOLE MOMENT
-------------
                                X             Y             Z
Electronic contribution:      1.44887      -6.66732      -2.20900
Nuclear contribution   :     -2.10163       7.82304       3.34253
                        -----------------------------------------
Total Dipole Moment    :     -0.65276       1.15572       1.13352
                        -----------------------------------------
Magnitude (a.u.)       :      1.74547
Magnitude (Debye)      :      4.43663

                             ****ORCA TERMINATED NORMALLY****
TOTAL RUN TIME: 0 days 0 hours 15 minutes 12 seconds 542 msec
