                         Program Version 3.0.3 - RELEASE   -
|  1> ! RI-MP2 RIJK def2-TZVP def2-TZVP/C def2-TZVP/JK TIGHTSCF
|  2> % maxcore 2000
|  3> % mp2 density relaxed end
|  4> *xyz 0 1
|  5>  O        0.0661388671     1.4632227461    -0.2313634293
|  6>  C        0.0169959362     0.0469890456    -0.1940532561
|  7>  C       -1.3973479152    -0.4805610635     0.0933792091
|  8>  C       -1.4380459258    -1.9810379822     0.1225107503
|  9>  C       -1.6146754222    -2.8768932026    -1.1143781498
| 10>  C       -2.5690465680    -2.9937167754     0.0321855718
| 11>  N       -1.9814551700    -3.7506489571     1.1432317926
| 12>  C       -0.8729027276    -2.8833678151     1.2160236365
| 13>  O        0.1105490457    -2.8934900426     1.9022919991
| 14>  H       -0.0612446114     1.7859909450     0.6662572557
| 15>  H        0.3418940850    -0.2912131190    -1.1837810418
| 16>  H        0.7207796700    -0.3694889576     0.5405010128
| 17>  H       -1.7353296872    -0.0858945180     1.0612070595
| 18>  H       -2.0841422257    -0.0902802481    -0.6663150543
| 19>  H       -1.9715510580    -2.3490733780    -1.9953734652
| 20>  H       -0.9162698179    -3.6827701673    -1.3219367716
| 21>  H       -3.6342961757    -2.8091928706    -0.0095859556
| 22>  H       -1.8892264893    -4.7608579896     1.1468731562
| 23> *
| 24>
| 25>                          ****END OF INPUT****

CARTESIAN COORDINATES (ANGSTROEM)
---------------------------------
  O      0.066139    1.463223   -0.231363
  C      0.016996    0.046989   -0.194053
  C     -1.397348   -0.480561    0.093379
  C     -1.438046   -1.981038    0.122511
  C     -1.614675   -2.876893   -1.114378
  C     -2.569047   -2.993717    0.032186
  N     -1.981455   -3.750649    1.143232
  C     -0.872903   -2.883368    1.216024
  O      0.110549   -2.893490    1.902292
  H     -0.061245    1.785991    0.666257
  H      0.341894   -0.291213   -1.183781
  H      0.720780   -0.369489    0.540501
  H     -1.735330   -0.085895    1.061207
  H     -2.084142   -0.090280   -0.666315
  H     -1.971551   -2.349073   -1.995373
  H     -0.916270   -3.682770   -1.321937
  H     -3.634296   -2.809193   -0.009586
  H     -1.889226   -4.760858    1.146873

 Total Charge           Charge          ....    0
 Multiplicity           Mult            ....    1
 Number of Electrons    NEL             ....   68
 Basis Dimension        Dim             ....  333

ORBITAL ENERGIES
----------------

  NO   OCC          E(Eh)            E(eV)
   0   2.0000     -20.557505      -559.3982
   1   2.0000     -20.542505      -558.9900
   2   2.0000     -15.587057      -424.1454
   3   2.0000     -11.361247      -309.1552
   4   2.0000     -11.292771      -307.2919
   5   2.0000     -11.277635      -306.8800
   6   2.0000     -11.266637      -306.5808
   7   2.0000     -11.262885      -306.4787
   8   2.0000     -11.242603      -305.9268
   9   2.0000      -1.402170       -38.1550
  10   2.0000      -1.361865       -37.0582
  11   2.0000      -1.294840       -35.2344
  12   2.0000      -1.114591       -30.3296
  13   2.0000      -1.026727       -27.9387
  14   2.0000      -0.907094       -24.6833
  15   2.0000      -0.858493       -23.3608
  16   2.0000      -0.845461       -23.0062
  17   2.0000      -0.727763       -19.8034
  18   2.0000      -0.704930       -19.1821
  19   2.0000      -0.694876       -18.9085
  20   2.0000      -0.675745       -18.3880
  21   2.0000      -0.661338       -17.9959
  22   2.0000      -0.626680       -17.0528
  23   2.0000      -0.593882       -16.1603
  24   2.0000      -0.581469       -15.8226
  25   2.0000      -0.560615       -15.2551
  26   2.0000      -0.558878       -15.2078
  27   2.0000      -0.543082       -14.7780
  28   2.0000      -0.495781       -13.4909
  29   2.0000      -0.488465       -13.2918
  30   2.0000      -0.455782       -12.4025
  31   2.0000      -0.435372       -11.8471
  32   2.0000      -0.413575       -11.2539
  33   2.0000      -0.388787       -10.5794
  34   0.0000       0.131132         3.5683
  35   0.0000       0.141752         3.8573
  36   0.0000       0.145231         3.9519
  37   0.0000       0.157843         4.2951
  38   0.0000       0.162605         4.4247

MULLIKEN ATOMIC CHARGES
-----------------------
   0 O :   -0.468527
   1 C :   -0.064690
   2 C :   -0.230127
   3 C :   -0.053936
   4 C :   -0.249119
   5 C :   -0.018340
   6 N :   -0.319430
   7 C :    0.220410
   8 O :   -0.291967
   9 H :    0.316307
  10 H :    0.113339
  11 H :    0.139148
  12 H :    0.118455
  13 H :    0.120311
  14 H :    0.135293
  15 H :    0.149416
  16 H :    0.149558
  17 H :    0.233899
Sum of atomic charges:   -0.0000000

LOEWDIN ATOMIC CHARGES
----------------------
   0 O :   -0.049171
   1 C :   -0.338459
   2 C :   -0.239069
   3 C :   -0.168575
   4 C :   -0.169158
   5 C :   -0.199464
   6 N :    0.108831
   7 C :   -0.384210
   8 O :    0.127233
   9 H :    0.174090
  10 H :    0.129402
  11 H :    0.124859
  12 H :    0.144799
  13 H :    0.146666
  14 H :    0.144530
  15 H :    0.137011
  16 H :    0.138916
  17 H :    0.171766

  Mayer bond orders larger than 0.1
B(  0-O ,  1-C ) :   0.9414 B(  0-O ,  9-H ) :   0.8477 B(  1-C ,  2-C ) :   0.9143
B(  1-C , 10-H ) :   0.9242 B(  1-C , 11-H ) :   0.9424 B(  2-C ,  3-C ) :   0.9044
B(  2-C , 12-H ) :   0.9282 B(  2-C , 13-H ) :   0.9230 B(  3-C ,  4-C ) :   0.8379
B(  3-C ,  5-C ) :   0.8135 B(  3-C ,  7-C ) :   0.8349 B(  4-C ,  5-C ) :   0.9061
B(  4-C , 14-H ) :   0.9167 B(  4-C , 15-H ) :   0.9165 B(  5-C ,  6-N ) :   0.9556
B(  5-C , 16-H ) :   0.9138 B(  6-N ,  7-C ) :   1.1293 B(  6-N , 17-H ) :   0.8521
B(  7-C ,  8-O ) :   2.0219

MP2 TOTAL ENERGY:     -438.352866759 Eh
FINAL SINGLE POINT ENERGY      -438.352866759014

DIPOLE MOMENT
-------------
                                X             Y             Z
Electronic contribution:      0.78373      -3.33920       3.90705
Nuclear contribution   :     -1.81866       2.91318      -4.47903
                        -----------------------------------------
Total Dipole Moment    :     -1.03494      -0.42601      -0.57198
                        -----------------------------------------
Magnitude (a.u.)       :      1.25688
Magnitude (Debye)      :      3.19473

                             ****ORCA TERMINATED NORMALLY****
TOTAL RUN TIME: 0 days 0 hours 16 minutes 38 seconds 137 msec
