                         Program Version 3.0.3 - RELEASE   -
|  1> ! RI-MP2 RIJK def2-TZVP def2-TZVP/C def2-TZVP/JK TIGHTSCF
|  2> % maxcore 2000
|  3> % mp2 density relaxed end
|  4> *xyz 0 1
|  5>  O       -0.0635219618     0.0319484258    -0.2205422978
|  6>  C       -0.0262692539     1.2230014098    -0.2535388336
|  7>  O        1.0311109461     1.9311743184     0.1970718243
|  8>  C        0.9868057093     3.3553898157     0.1148683422
|  9>  C        1.1648206130     3.9775576234     1.5182405285
| 10>  N        1.8395012641     5.2236629722     1.2127503181
| 11>  C        2.4801023020     5.2549594051    -0.0013549421
| 12>  O        3.1758714917     6.1510976395    -0.4161432003
| 13>  C        2.1438122486     3.9330721506    -0.7039411923
| 14>  H       -0.8362862655     1.8676103210    -0.6477222372
| 15>  H        0.0248524466     3.6660949296    -0.3092788963
| 16>  H        0.2080941007     4.1429761560     2.0229275457
| 17>  H        1.7705943129     3.3046970228     2.1402168361
| 18>  H        2.0249161115     5.9370793891     1.9002146347
| 19>  H        3.0151579754     3.2724080663    -0.6384296137
| 20>  H        1.9180878392     4.0920520246    -1.7589912464
| 21> *
| 22>
| 23>                          ****END OF INPUT****

CARTESIAN COORDINATES (ANGSTROEM)
---------------------------------
  O     -0.063522    0.031948   -0.220542
  C     -0.026269    1.223001   -0.253539
  O      1.031111    1.931174    0.197072
  C      0.986806    3.355390    0.114868
  C      1.164821    3.977558    1.518241
  N      1.839501    5.223663    1.212750
  C      2.480102    5.254959   -0.001355
  O      3.175871    6.151098   -0.416143
  C      2.143812    3.933072   -0.703941
  H     -0.836286    1.867610   -0.647722
  H      0.024852    3.666095   -0.309279
  H      0.208094    4.142976    2.022928
  H      1.770594    3.304697    2.140217
  H      2.024916    5.937079    1.900215
  H      3.015158    3.272408   -0.638430
  H      1.918088    4.092052   -1.758991

 Total Charge           Charge          ....    0
 Multiplicity           Mult            ....    1
 Number of Electrons    NEL             ....   68
 Basis Dimension        Dim             ....  321

ORBITAL ENERGIES
----------------

  NO   OCC          E(Eh)            E(eV)
   0   2.0000     -20.627516      -561.3032
   1   2.0000     -20.565049      -559.6034
   2   2.0000     -20.531871      -558.7006
   3   2.0000     -15.600619      -424.5144
   4   2.0000     -11.398775      -310.1764
   5   2.0000     -11.364408      -309.2413
   6   2.0000     -11.336059      -308.4699
   7   2.0000     -11.298124      -307.4376
   8   2.0000     -11.261219      -306.4333
   9   2.0000      -1.480698       -40.2919
  10   2.0000      -1.398275       -38.0490
  11   2.0000      -1.390209       -37.8295
  12   2.0000      -1.268867       -34.5276
  13   2.0000      -1.081303       -29.4238
  14   2.0000      -0.998613       -27.1736
  15   2.0000      -0.890000       -24.2181
  16   2.0000      -0.858081       -23.3496
  17   2.0000      -0.815277       -22.1848
  18   2.0000      -0.751396       -20.4465
  19   2.0000      -0.713866       -19.4253
  20   2.0000      -0.686665       -18.6851
  21   2.0000      -0.662300       -18.0221
  22   2.0000      -0.659243       -17.9389
  23   2.0000      -0.638308       -17.3692
  24   2.0000      -0.609891       -16.5960
  25   2.0000      -0.601383       -16.3645
  26   2.0000      -0.593843       -16.1593
  27   2.0000      -0.562984       -15.3196
  28   2.0000      -0.549787       -14.9605
  29   2.0000      -0.511431       -13.9167
  30   2.0000      -0.476554       -12.9677
  31   2.0000      -0.472127       -12.8472
  32   2.0000      -0.430871       -11.7246
  33   2.0000      -0.410563       -11.1720
  34   0.0000       0.117053         3.1852
  35   0.0000       0.131784         3.5860
  36   0.0000       0.134535         3.6609
  37   0.0000       0.159963         4.3528
  38   0.0000       0.163124         4.4388

MULLIKEN ATOMIC CHARGES
-----------------------
   0 O :   -0.259423
   1 C :    0.193112
   2 O :   -0.203835
   3 C :    0.027411
   4 C :   -0.105033
   5 N :   -0.305023
   6 C :    0.188294
   7 O :   -0.323757
   8 C :   -0.195111
   9 H :    0.077054
  10 H :    0.098024
  11 H :    0.130891
  12 H :    0.134813
  13 H :    0.244672
  14 H :    0.150620
  15 H :    0.147291
Sum of atomic charges:   -0.0000000

LOEWDIN ATOMIC CHARGES
----------------------
   0 O :    0.129084
   1 C :   -0.446128
   2 O :    0.267680
   3 C :   -0.286886
   4 C :   -0.246807
   5 N :    0.115270
   6 C :   -0.446788
   7 O :    0.096394
   8 C :   -0.193928
   9 H :    0.103058
  10 H :    0.141720
  11 H :    0.132502
  12 H :    0.136166
  13 H :    0.185506
  14 H :    0.162934
  15 H :    0.150226

  Mayer bond orders larger than 0.1
B(  0-O ,  1-C ) :   2.0358 B(  1-C ,  2-O ) :   1.0554 B(  1-C ,  9-H ) :   0.9130
B(  2-O ,  3-C ) :   0.8865 B(  3-C ,  4-C ) :   0.9315 B(  3-C ,  8-C ) :   0.9343
B(  3-C , 10-H ) :   0.9325 B(  4-C ,  5-N ) :   0.8856 B(  4-C , 11-H ) :   0.9222
B(  4-C , 12-H ) :   0.9220 B(  5-N ,  6-C ) :   1.1506 B(  5-N , 13-H ) :   0.8622
B(  6-C ,  7-O ) :   2.0159 B(  6-C ,  8-C ) :   0.9022 B(  8-C , 14-H ) :   0.8983
B(  8-C , 15-H ) :   0.9192

MP2 TOTAL ENERGY:     -474.334886687 Eh
FINAL SINGLE POINT ENERGY      -474.334886686894

DIPOLE MOMENT
-------------
                                X             Y             Z
Electronic contribution:      0.71950      -1.55606      -0.78650
Nuclear contribution   :     -1.59776       2.12348       1.47652
                        -----------------------------------------
Total Dipole Moment    :     -0.87827       0.56742       0.69001
                        -----------------------------------------
Magnitude (a.u.)       :      1.25277
Magnitude (Debye)      :      3.18429

                             ****ORCA TERMINATED NORMALLY****
TOTAL RUN TIME: 0 days 0 hours 13 minutes 45 seconds 370 msec
