                         Program Version 3.0.3 - RELEASE   -
|  1> ! RI-MP2 RIJK def2-TZVP def2-TZVP/C def2-TZVP/JK TIGHTSCF
|  2> % maxcore 2000
|  3> % mp2 density relaxed end
|  4> *xyz 0 1
|  5>  C       -0.0790446030     1.5101934136     0.0082748005
|  6>  C        0.0470584653     0.0245757964     0.0603064593
|  7>  C        1.2097460345    -0.8211207972    -0.3598462189
|  8>  C        0.6409594834    -0.9726973609     1.0416007159
|  9>  C        1.4252929697    -0.8434219411     2.3123748458
| 10>  C       -0.7127988364    -1.6828657249     0.9142701521
| 11>  O       -1.1700490130    -0.7428057868    -0.0848050473
| 12>  C       -0.7245243580    -3.0753540463     0.4546922690
| 13>  N       -0.7129946577    -4.1776767531     0.1079168026
| 14>  H        0.8852485303     1.9833076874     0.2139280712
| 15>  H       -0.4041529662     1.8293355458    -0.9881590274
| 16>  H       -0.8111031946     1.8699984852     0.7374911725
| 17>  H        1.0779338287    -1.5978159667    -1.1082901432
| 18>  H        2.1703790837    -0.3152569556    -0.3863229667
| 19>  H        2.1938442506    -0.0703419005     2.2166932444
| 20>  H        0.7826949872    -0.5739617729     3.1578854906
| 21>  H        1.9340686681    -1.7818552896     2.5611692509
| 22>  H       -1.3201185225    -1.5989600127     1.8238763287
| 23> *
| 24>
| 25>                          ****END OF INPUT****

CARTESIAN COORDINATES (ANGSTROEM)
---------------------------------
  C     -0.079045    1.510193    0.008275
  C      0.047058    0.024576    0.060306
  C      1.209746   -0.821121   -0.359846
  C      0.640959   -0.972697    1.041601
  C      1.425293   -0.843422    2.312375
  C     -0.712799   -1.682866    0.914270
  O     -1.170049   -0.742806   -0.084805
  C     -0.724524   -3.075354    0.454692
  N     -0.712995   -4.177677    0.107917
  H      0.885249    1.983308    0.213928
  H     -0.404153    1.829336   -0.988159
  H     -0.811103    1.869998    0.737491
  H      1.077934   -1.597816   -1.108290
  H      2.170379   -0.315257   -0.386323
  H      2.193844   -0.070342    2.216693
  H      0.782695   -0.573962    3.157885
  H      1.934069   -1.781855    2.561169
  H     -1.320119   -1.598960    1.823876

 Total Charge           Charge          ....    0
 Multiplicity           Mult            ....    1
 Number of Electrons    NEL             ....   66
 Basis Dimension        Dim             ....  333

ORBITAL ENERGIES
----------------

  NO   OCC          E(Eh)            E(eV)
   0   2.0000     -20.582095      -560.0673
   1   2.0000     -15.576526      -423.8588
   2   2.0000     -11.342401      -308.6424
   3   2.0000     -11.313302      -307.8506
   4   2.0000     -11.273992      -306.7809
   5   2.0000     -11.270028      -306.6731
   6   2.0000     -11.247051      -306.0478
   7   2.0000     -11.245535      -306.0066
   8   2.0000     -11.241191      -305.8884
   9   2.0000      -1.422127       -38.6980
  10   2.0000      -1.220613       -33.2146
  11   2.0000      -1.151407       -31.3314
  12   2.0000      -1.044980       -28.4353
  13   2.0000      -0.982562       -26.7369
  14   2.0000      -0.970998       -26.4222
  15   2.0000      -0.843392       -22.9499
  16   2.0000      -0.742379       -20.2012
  17   2.0000      -0.718121       -19.5411
  18   2.0000      -0.689787       -18.7701
  19   2.0000      -0.674047       -18.3417
  20   2.0000      -0.610322       -16.6077
  21   2.0000      -0.596439       -16.2299
  22   2.0000      -0.587277       -15.9806
  23   2.0000      -0.574568       -15.6348
  24   2.0000      -0.567750       -15.4493
  25   2.0000      -0.562462       -15.3054
  26   2.0000      -0.555489       -15.1156
  27   2.0000      -0.525523       -14.3002
  28   2.0000      -0.503272       -13.6947
  29   2.0000      -0.468776       -12.7560
  30   2.0000      -0.460017       -12.5177
  31   2.0000      -0.423637       -11.5277
  32   2.0000      -0.389374       -10.5954
  33   0.0000       0.114799         3.1239
  34   0.0000       0.140068         3.8114
  35   0.0000       0.156099         4.2477
  36   0.0000       0.161746         4.4013
  37   0.0000       0.173075         4.7096

MULLIKEN ATOMIC CHARGES
-----------------------
   0 C :   -0.402558
   1 C :    0.163384
   2 C :   -0.256117
   3 C :   -0.032435
   4 C :   -0.395729
   5 C :    0.207467
   6 O :   -0.309774
   7 C :   -0.203515
   8 N :   -0.047215
   9 H :    0.132607
  10 H :    0.153021
  11 H :    0.141079
  12 H :    0.155083
  13 H :    0.136149
  14 H :    0.135681
  15 H :    0.136233
  16 H :    0.153739
  17 H :    0.132900
Sum of atomic charges:    0.0000000

LOEWDIN ATOMIC CHARGES
----------------------
   0 C :   -0.264551
   1 C :   -0.275882
   2 C :   -0.156412
   3 C :   -0.193464
   4 C :   -0.268259
   5 C :   -0.227148
   6 O :    0.203802
   7 C :   -0.158129
   8 N :    0.075085
   9 H :    0.136357
  10 H :    0.138781
  11 H :    0.133523
  12 H :    0.143513
  13 H :    0.146940
  14 H :    0.134656
  15 H :    0.130704
  16 H :    0.135601
  17 H :    0.164882

  Mayer bond orders larger than 0.1
B(  0-C ,  1-C ) :   0.9014 B(  0-C ,  9-H ) :   0.9268 B(  0-C , 10-H ) :   0.9356
B(  0-C , 11-H ) :   0.9348 B(  1-C ,  2-C ) :   0.8793 B(  1-C ,  3-C ) :   0.8713
B(  1-C ,  6-O ) :   0.9458 B(  2-C ,  3-C ) :   0.8830 B(  2-C , 12-H ) :   0.8946
B(  2-C , 13-H ) :   0.9251 B(  3-C ,  4-C ) :   0.9025 B(  3-C ,  5-C ) :   0.9166
B(  4-C , 14-H ) :   0.9287 B(  4-C , 15-H ) :   0.9350 B(  4-C , 16-H ) :   0.9334
B(  5-C ,  6-O ) :   0.9523 B(  5-C ,  7-C ) :   0.9224 B(  5-C , 17-H ) :   0.8918
B(  7-C ,  8-N ) :   2.8430

MP2 TOTAL ENERGY:     -401.232566466 Eh
FINAL SINGLE POINT ENERGY      -401.232566466115

DIPOLE MOMENT
-------------
                                X             Y             Z
Electronic contribution:     -5.32453      -7.83788      -2.67198
Nuclear contribution   :      6.11579       9.42007       3.48008
                        -----------------------------------------
Total Dipole Moment    :      0.79125       1.58218       0.80810
                        -----------------------------------------
Magnitude (a.u.)       :      1.94484
Magnitude (Debye)      :      4.94339

                             ****ORCA TERMINATED NORMALLY****
TOTAL RUN TIME: 0 days 0 hours 18 minutes 1 seconds 725 msec
