                         Program Version 3.0.3 - RELEASE   -
|  1> ! RI-MP2 RIJK def2-TZVP def2-TZVP/C def2-TZVP/JK TIGHTSCF
|  2> % maxcore 2000
|  3> % mp2 density relaxed end
|  4> *xyz 0 1
|  5>  C       -0.1218706202     1.3665195877     0.0558936912
|  6>  O       -0.0866080895    -0.0309050652    -0.1326993727
|  7>  C        0.7072835584    -0.5470234249    -1.2094245241
|  8>  C        0.1542774700    -0.0874471043    -2.5692256318
|  9>  C        2.1779392249    -0.1317422615    -1.0511744095
| 10>  C        0.5802113466    -2.0988164186    -1.0262187903
| 11>  C       -0.8661949795    -2.5846444511    -0.8614361829
| 12>  C        1.2401837959    -2.8394025919    -2.1798079295
| 13>  O        2.4107682538    -3.1183887882    -2.2470927598
| 14>  H        0.8647505087     1.7876727225     0.2909483490
| 15>  H       -0.5318476674     1.9035848669    -0.8104141996
| 16>  H       -0.7820653786     1.5418615040     0.9092737201
| 17>  H        0.2483214710     0.9955696582    -2.6852296603
| 18>  H        0.7150477531    -0.5442431199    -3.3908331207
| 19>  H       -0.9009385647    -0.3501092809    -2.6799703670
| 20>  H        2.5047285852    -0.3065391527    -0.0217382596
| 21>  H        2.8216054791    -0.7156393155    -1.7122305206
| 22>  H        2.3224172098     0.9265534589    -1.2867378283
| 23>  H        1.1542646111    -2.3436171960    -0.1259977276
| 24>  H       -0.8859514904    -3.6571971096    -0.6421281075
| 25>  H       -1.3534313743    -2.0518954202    -0.0454568929
| 26>  H       -1.4538352279    -2.4252916212    -1.7719331925
| 27>  H        0.5433547450    -3.1306212765    -3.0008336831
| 28> *
| 29>
| 30>                          ****END OF INPUT****

CARTESIAN COORDINATES (ANGSTROEM)
---------------------------------
  C     -0.121871    1.366520    0.055894
  O     -0.086608   -0.030905   -0.132699
  C      0.707284   -0.547023   -1.209425
  C      0.154277   -0.087447   -2.569226
  C      2.177939   -0.131742   -1.051174
  C      0.580211   -2.098816   -1.026219
  C     -0.866195   -2.584644   -0.861436
  C      1.240184   -2.839403   -2.179808
  O      2.410768   -3.118389   -2.247093
  H      0.864751    1.787673    0.290948
  H     -0.531848    1.903585   -0.810414
  H     -0.782065    1.541862    0.909274
  H      0.248321    0.995570   -2.685230
  H      0.715048   -0.544243   -3.390833
  H     -0.900939   -0.350109   -2.679970
  H      2.504729   -0.306539   -0.021738
  H      2.821605   -0.715639   -1.712231
  H      2.322417    0.926553   -1.286738
  H      1.154265   -2.343617   -0.125998
  H     -0.885951   -3.657197   -0.642128
  H     -1.353431   -2.051895   -0.045457
  H     -1.453835   -2.425292   -1.771933
  H      0.543355   -3.130621   -3.000834

 Total Charge           Charge          ....    0
 Multiplicity           Mult            ....    1
 Number of Electrons    NEL             ....   72
 Basis Dimension        Dim             ....  363

ORBITAL ENERGIES
----------------

  NO   OCC          E(Eh)            E(eV)
   0   2.0000     -20.556347      -559.3666
   1   2.0000     -20.556020      -559.3577
   2   2.0000     -11.329224      -308.2839
   3   2.0000     -11.302271      -307.5504
   4   2.0000     -11.273340      -306.7632
   5   2.0000     -11.241278      -305.8907
   6   2.0000     -11.225356      -305.4575
   7   2.0000     -11.221061      -305.3406
   8   2.0000     -11.214655      -305.1663
   9   2.0000      -1.395515       -37.9739
  10   2.0000      -1.376589       -37.4589
  11   2.0000      -1.101851       -29.9829
  12   2.0000      -1.018345       -27.7106
  13   2.0000      -0.948572       -25.8120
  14   2.0000      -0.936323       -25.4786
  15   2.0000      -0.890646       -24.2357
  16   2.0000      -0.809233       -22.0203
  17   2.0000      -0.750972       -20.4350
  18   2.0000      -0.674744       -18.3607
  19   2.0000      -0.662367       -18.0239
  20   2.0000      -0.653936       -17.7945
  21   2.0000      -0.648269       -17.6403
  22   2.0000      -0.618212       -16.8224
  23   2.0000      -0.584314       -15.9000
  24   2.0000      -0.579954       -15.7813
  25   2.0000      -0.568704       -15.4752
  26   2.0000      -0.554208       -15.0808
  27   2.0000      -0.541480       -14.7344
  28   2.0000      -0.534970       -14.5573
  29   2.0000      -0.520672       -14.1682
  30   2.0000      -0.514678       -14.0051
  31   2.0000      -0.490547       -13.3485
  32   2.0000      -0.485929       -13.2228
  33   2.0000      -0.446887       -12.1604
  34   2.0000      -0.422627       -11.5003
  35   2.0000      -0.413200       -11.2437
  36   0.0000       0.126138         3.4324
  37   0.0000       0.134176         3.6511
  38   0.0000       0.152920         4.1612
  39   0.0000       0.168867         4.5951
  40   0.0000       0.179510         4.8847

MULLIKEN ATOMIC CHARGES
-----------------------
   0 C :   -0.235943
   1 O :   -0.304533
   2 C :    0.216014
   3 C :   -0.485874
   4 C :   -0.449081
   5 C :    0.059214
   6 C :   -0.447434
   7 C :    0.037864
   8 O :   -0.259383
   9 H :    0.121813
  10 H :    0.112464
  11 H :    0.144171
  12 H :    0.138260
  13 H :    0.149544
  14 H :    0.148536
  15 H :    0.142320
  16 H :    0.164323
  17 H :    0.133065
  18 H :    0.099089
  19 H :    0.142111
  20 H :    0.163786
  21 H :    0.124402
  22 H :    0.085271
Sum of atomic charges:   -0.0000000

LOEWDIN ATOMIC CHARGES
----------------------
   0 C :   -0.357334
   1 O :    0.173770
   2 C :   -0.369916
   3 C :   -0.270598
   4 C :   -0.272045
   5 C :   -0.237234
   6 C :   -0.289443
   7 C :   -0.276094
   8 O :    0.134253
   9 H :    0.104250
  10 H :    0.101749
  11 H :    0.115342
  12 H :    0.126165
  13 H :    0.133489
  14 H :    0.128795
  15 H :    0.131555
  16 H :    0.136346
  17 H :    0.123840
  18 H :    0.167082
  19 H :    0.126339
  20 H :    0.132893
  21 H :    0.122380
  22 H :    0.114414

  Mayer bond orders larger than 0.1
B(  0-C ,  1-O ) :   0.9181 B(  0-C ,  9-H ) :   0.9349 B(  0-C , 10-H ) :   0.9302
B(  0-C , 11-H ) :   0.9417 B(  1-O ,  2-C ) :   0.9436 B(  2-C ,  3-C ) :   0.9039
B(  2-C ,  4-C ) :   0.9283 B(  2-C ,  5-C ) :   0.8651 B(  3-C , 12-H ) :   0.9311
B(  3-C , 13-H ) :   0.9246 B(  3-C , 14-H ) :   0.9426 B(  4-C , 15-H ) :   0.9387
B(  4-C , 16-H ) :   0.9165 B(  4-C , 17-H ) :   0.9320 B(  5-C ,  6-C ) :   0.9106
B(  5-C ,  7-C ) :   0.8247 B(  5-C , 18-H ) :   0.9091 B(  6-C , 19-H ) :   0.9400
B(  6-C , 20-H ) :   0.9331 B(  6-C , 21-H ) :   0.9243 B(  7-C ,  8-O ) :   1.9789
B(  7-C , 22-H ) :   0.9335

MP2 TOTAL ENERGY:     -424.724522964 Eh
FINAL SINGLE POINT ENERGY      -424.724522963832

DIPOLE MOMENT
-------------
                                X             Y             Z
Electronic contribution:      3.35822      -5.72619      -0.37918
Nuclear contribution   :     -4.02389       6.45640       0.35878
                        -----------------------------------------
Total Dipole Moment    :     -0.66567       0.73021      -0.02040
                        -----------------------------------------
Magnitude (a.u.)       :      0.98830
Magnitude (Debye)      :      2.51206

                             ****ORCA TERMINATED NORMALLY****
TOTAL RUN TIME: 0 days 0 hours 22 minutes 31 seconds 630 msec
