                         Program Version 3.0.3 - RELEASE   -
|  1> ! RI-MP2 RIJK def2-TZVP def2-TZVP/C def2-TZVP/JK TIGHTSCF
|  2> % maxcore 2000
|  3> % mp2 density relaxed end
|  4> *xyz 0 1
|  5>  C        0.1621232238     1.5544133456     0.1474480444
|  6>  C        0.0651322164     0.0274322851     0.0172758045
|  7>  C        0.8355308986    -0.6589493560     1.1535746794
|  8>  C       -1.3914312077    -0.4710997106    -0.0208269702
|  9>  C       -2.2093271078    -0.0074457118    -1.2318923546
| 10>  C       -3.6158768637    -0.6164374156    -1.2671875355
| 11>  C       -4.4375600795    -0.1603462939    -2.4859899165
| 12>  C       -5.8486104964    -0.6982226016    -2.4474445175
| 13>  O       -6.3634643006    -1.3621404965    -3.3098188027
| 14>  H        1.2076687420     1.8774692615     0.1864453598
| 15>  H       -0.3097366345     2.0723887378    -0.6925837118
| 16>  H       -0.3242719532     1.8984649035     1.0686185789
| 17>  H        0.5397529130    -0.2614356842    -0.9322079157
| 18>  H        0.4015772834    -0.4069333040     2.1287759399
| 19>  H        0.8111918455    -1.7490605364     1.0515086233
| 20>  H        1.8847880642    -0.3461556678     1.1681619088
| 21>  H       -1.3835937173    -1.5694551959    -0.0042282686
| 22>  H       -1.8999383082    -0.1595727611     0.9034507700
| 23>  H       -2.2962495368     1.0862553055    -1.2351086494
| 24>  H       -1.6771514340    -0.2743037521    -2.1552835564
| 25>  H       -3.5419339386    -1.7115078871    -1.2722578527
| 26>  H       -4.1522928698    -0.3503221725    -0.3461963703
| 27>  H       -4.5024263504     0.9379881874    -2.4830581498
| 28>  H       -3.9707281469    -0.4695881183    -3.4259484683
| 29>  H       -6.4098725216    -0.4357488509    -1.5183696090
| 30> *
| 31>
| 32>                          ****END OF INPUT****

CARTESIAN COORDINATES (ANGSTROEM)
---------------------------------
  C      0.162123    1.554413    0.147448
  C      0.065132    0.027432    0.017276
  C      0.835531   -0.658949    1.153575
  C     -1.391431   -0.471100   -0.020827
  C     -2.209327   -0.007446   -1.231892
  C     -3.615877   -0.616437   -1.267188
  C     -4.437560   -0.160346   -2.485990
  C     -5.848610   -0.698223   -2.447445
  O     -6.363464   -1.362140   -3.309819
  H      1.207669    1.877469    0.186445
  H     -0.309737    2.072389   -0.692584
  H     -0.324272    1.898465    1.068619
  H      0.539753   -0.261436   -0.932208
  H      0.401577   -0.406933    2.128776
  H      0.811192   -1.749061    1.051509
  H      1.884788   -0.346156    1.168162
  H     -1.383594   -1.569455   -0.004228
  H     -1.899938   -0.159573    0.903451
  H     -2.296250    1.086255   -1.235109
  H     -1.677151   -0.274304   -2.155284
  H     -3.541934   -1.711508   -1.272258
  H     -4.152293   -0.350322   -0.346196
  H     -4.502426    0.937988   -2.483058
  H     -3.970728   -0.469588   -3.425948
  H     -6.409873   -0.435749   -1.518370

 Total Charge           Charge          ....    0
 Multiplicity           Mult            ....    1
 Number of Electrons    NEL             ....   72
 Basis Dimension        Dim             ....  375

ORBITAL ENERGIES
----------------

  NO   OCC          E(Eh)            E(eV)
   0   2.0000     -20.554519      -559.3169
   1   2.0000     -11.329280      -308.2854
   2   2.0000     -11.240002      -305.8560
   3   2.0000     -11.238745      -305.8218
   4   2.0000     -11.230346      -305.5932
   5   2.0000     -11.228804      -305.5513
   6   2.0000     -11.223003      -305.3934
   7   2.0000     -11.214875      -305.1723
   8   2.0000     -11.214111      -305.1515
   9   2.0000      -1.393179       -37.9103
  10   2.0000      -1.107513       -30.1369
  11   2.0000      -1.073617       -29.2146
  12   2.0000      -0.999510       -27.1980
  13   2.0000      -0.931121       -25.3371
  14   2.0000      -0.902110       -24.5477
  15   2.0000      -0.816846       -22.2275
  16   2.0000      -0.791765       -21.5450
  17   2.0000      -0.767429       -20.8828
  18   2.0000      -0.677574       -18.4377
  19   2.0000      -0.648839       -17.6558
  20   2.0000      -0.635152       -17.2834
  21   2.0000      -0.623201       -16.9582
  22   2.0000      -0.605364       -16.4728
  23   2.0000      -0.584669       -15.9097
  24   2.0000      -0.568681       -15.4746
  25   2.0000      -0.551939       -15.0190
  26   2.0000      -0.537532       -14.6270
  27   2.0000      -0.523561       -14.2468
  28   2.0000      -0.515071       -14.0158
  29   2.0000      -0.504788       -13.7360
  30   2.0000      -0.490298       -13.3417
  31   2.0000      -0.481846       -13.1117
  32   2.0000      -0.463046       -12.6001
  33   2.0000      -0.458654       -12.4806
  34   2.0000      -0.454042       -12.3551
  35   2.0000      -0.413242       -11.2449
  36   0.0000       0.127020         3.4564
  37   0.0000       0.135258         3.6806
  38   0.0000       0.146661         3.9908
  39   0.0000       0.152064         4.1379
  40   0.0000       0.160769         4.3748

MULLIKEN ATOMIC CHARGES
-----------------------
   0 C :   -0.420166
   1 C :    0.002655
   2 C :   -0.390227
   3 C :   -0.235634
   4 C :   -0.231100
   5 C :   -0.277495
   6 C :   -0.126546
   7 C :    0.095458
   8 O :   -0.265160
   9 H :    0.132662
  10 H :    0.132927
  11 H :    0.120447
  12 H :    0.082302
  13 H :    0.120437
  14 H :    0.128658
  15 H :    0.131414
  16 H :    0.113289
  17 H :    0.108111
  18 H :    0.112400
  19 H :    0.114418
  20 H :    0.126973
  21 H :    0.115151
  22 H :    0.121301
  23 H :    0.120378
  24 H :    0.067349
Sum of atomic charges:   -0.0000000

LOEWDIN ATOMIC CHARGES
----------------------
   0 C :   -0.297043
   1 C :   -0.310611
   2 C :   -0.297000
   3 C :   -0.250791
   4 C :   -0.268150
   5 C :   -0.263910
   6 C :   -0.263770
   7 C :   -0.298546
   8 O :    0.129001
   9 H :    0.123493
  10 H :    0.119919
  11 H :    0.123195
  12 H :    0.149054
  13 H :    0.122814
  14 H :    0.121690
  15 H :    0.122191
  16 H :    0.140833
  17 H :    0.138930
  18 H :    0.136571
  19 H :    0.139366
  20 H :    0.140864
  21 H :    0.138597
  22 H :    0.150476
  23 H :    0.144657
  24 H :    0.108169

  Mayer bond orders larger than 0.1
B(  0-C ,  1-C ) :   0.9111 B(  0-C ,  9-H ) :   0.9392 B(  0-C , 10-H ) :   0.9409
B(  0-C , 11-H ) :   0.9313 B(  1-C ,  2-C ) :   0.9196 B(  1-C ,  3-C ) :   0.9247
B(  1-C , 12-H ) :   0.9294 B(  2-C , 13-H ) :   0.9319 B(  2-C , 14-H ) :   0.9402
B(  2-C , 15-H ) :   0.9424 B(  3-C ,  4-C ) :   0.9290 B(  3-C , 16-H ) :   0.9315
B(  3-C , 17-H ) :   0.9271 B(  4-C ,  5-C ) :   0.9357 B(  4-C , 18-H ) :   0.9338
B(  4-C , 19-H ) :   0.9274 B(  5-C ,  6-C ) :   0.9092 B(  5-C , 20-H ) :   0.9273
B(  5-C , 21-H ) :   0.9320 B(  6-C ,  7-C ) :   0.8777 B(  6-C , 22-H ) :   0.9149
B(  6-C , 23-H ) :   0.9042 B(  7-C ,  8-O ) :   2.0085 B(  7-C , 24-H ) :   0.9400

MP2 TOTAL ENERGY:     -388.832930690 Eh
FINAL SINGLE POINT ENERGY      -388.832930689749

DIPOLE MOMENT
-------------
                                X             Y             Z
Electronic contribution:    -13.21080      -3.54958      -7.91996
Nuclear contribution   :     13.96531       4.09807       8.59414
                        -----------------------------------------
Total Dipole Moment    :      0.75451       0.54849       0.67418
                        -----------------------------------------
Magnitude (a.u.)       :      1.15093
Magnitude (Debye)      :      2.92543

                             ****ORCA TERMINATED NORMALLY****
TOTAL RUN TIME: 0 days 0 hours 21 minutes 44 seconds 942 msec
