                         Program Version 3.0.3 - RELEASE   -
|  1> ! RI-MP2 RIJK def2-TZVP def2-TZVP/C def2-TZVP/JK TIGHTSCF
|  2> % maxcore 2000
|  3> % mp2 density relaxed end
|  4> *xyz 0 1
|  5>  C        0.1016251628     1.5024826856    -0.1593843681
|  6>  C       -0.0447061299    -0.0077525576     0.0365630814
|  7>  O        0.5711877511    -0.4334323866     1.2516393465
|  8>  C       -1.4953330967    -0.5034917779     0.1009001929
|  9>  C       -2.2971548711     0.1234175190     1.2367933146
| 10>  C       -2.1821766440    -0.5453814071    -1.2878116884
| 11>  O       -2.0821536009    -1.9795399565    -1.3538724014
| 12>  C       -1.5709256683    -2.0487823214    -0.0054097367
| 13>  H        1.1589576148     1.7704564492    -0.2668986350
| 14>  H       -0.4130742942     1.8406980343    -1.0646214125
| 15>  H       -0.2992230154     2.0503829491     0.6974747535
| 16>  H        0.4319031879    -0.5170607897    -0.8180717066
| 17>  H        1.4875205308    -0.1403490108     1.2420120640
| 18>  H       -2.4450024760     1.1974468083     1.0825845169
| 19>  H       -3.2873765193    -0.3370453040     1.3076477100
| 20>  H       -1.7820631476    -0.0147690484     2.1911531017
| 21>  H       -3.2261612739    -0.2029824634    -1.2885405034
| 22>  H       -1.6512938829    -0.0577662735    -2.1160427236
| 23>  H       -0.6163203351    -2.5826657507     0.0518296416
| 24>  H       -2.2873193521    -2.5206846578     0.6798493125
| 25> *
| 26>
| 27>                          ****END OF INPUT****

CARTESIAN COORDINATES (ANGSTROEM)
---------------------------------
  C      0.101625    1.502483   -0.159384
  C     -0.044706   -0.007753    0.036563
  O      0.571188   -0.433432    1.251639
  C     -1.495333   -0.503492    0.100900
  C     -2.297155    0.123418    1.236793
  C     -2.182177   -0.545381   -1.287812
  O     -2.082154   -1.979540   -1.353872
  C     -1.570926   -2.048782   -0.005410
  H      1.158958    1.770456   -0.266899
  H     -0.413074    1.840698   -1.064621
  H     -0.299223    2.050383    0.697475
  H      0.431903   -0.517061   -0.818072
  H      1.487521   -0.140349    1.242012
  H     -2.445002    1.197447    1.082585
  H     -3.287377   -0.337045    1.307648
  H     -1.782063   -0.014769    2.191153
  H     -3.226161   -0.202982   -1.288541
  H     -1.651294   -0.057766   -2.116043
  H     -0.616320   -2.582666    0.051830
  H     -2.287319   -2.520685    0.679849

 Total Charge           Charge          ....    0
 Multiplicity           Mult            ....    1
 Number of Electrons    NEL             ....   64
 Basis Dimension        Dim             ....  320

ORBITAL ENERGIES
----------------

  NO   OCC          E(Eh)            E(eV)
   0   2.0000     -20.559755      -559.4594
   1   2.0000     -20.542148      -558.9803
   2   2.0000     -11.286992      -307.1347
   3   2.0000     -11.274185      -306.7862
   4   2.0000     -11.268221      -306.6239
   5   2.0000     -11.237789      -305.7958
   6   2.0000     -11.225659      -305.4657
   7   2.0000     -11.215217      -305.1816
   8   2.0000      -1.374728       -37.4083
   9   2.0000      -1.364303       -37.1246
  10   2.0000      -1.080933       -29.4137
  11   2.0000      -0.995445       -27.0874
  12   2.0000      -0.929830       -25.3019
  13   2.0000      -0.915707       -24.9177
  14   2.0000      -0.847637       -23.0654
  15   2.0000      -0.729295       -19.8451
  16   2.0000      -0.703253       -19.1365
  17   2.0000      -0.674156       -18.3447
  18   2.0000      -0.648553       -17.6480
  19   2.0000      -0.618335       -16.8257
  20   2.0000      -0.602934       -16.4067
  21   2.0000      -0.580742       -15.8028
  22   2.0000      -0.567571       -15.4444
  23   2.0000      -0.552499       -15.0343
  24   2.0000      -0.543747       -14.7961
  25   2.0000      -0.536851       -14.6085
  26   2.0000      -0.524930       -14.2841
  27   2.0000      -0.481039       -13.0897
  28   2.0000      -0.451985       -12.2991
  29   2.0000      -0.444128       -12.0853
  30   2.0000      -0.429938       -11.6992
  31   2.0000      -0.408396       -11.1130
  32   0.0000       0.122782         3.3411
  33   0.0000       0.154305         4.1988
  34   0.0000       0.164248         4.4694
  35   0.0000       0.171138         4.6569
  36   0.0000       0.195129         5.3097

MULLIKEN ATOMIC CHARGES
-----------------------
   0 C :   -0.454196
   1 C :    0.031577
   2 O :   -0.472278
   3 C :    0.181024
   4 C :   -0.481888
   5 C :   -0.059293
   6 O :   -0.330722
   7 C :   -0.052513
   8 H :    0.131781
   9 H :    0.129489
  10 H :    0.149023
  11 H :    0.101440
  12 H :    0.313086
  13 H :    0.133319
  14 H :    0.138516
  15 H :    0.159173
  16 H :    0.093610
  17 H :    0.091410
  18 H :    0.107487
  19 H :    0.089956
Sum of atomic charges:   -0.0000000

LOEWDIN ATOMIC CHARGES
----------------------
   0 C :   -0.299883
   1 C :   -0.340585
   2 O :   -0.015600
   3 C :   -0.276622
   4 C :   -0.272610
   5 C :   -0.235616
   6 O :    0.110835
   7 C :   -0.226257
   8 H :    0.121940
   9 H :    0.127912
  10 H :    0.126816
  11 H :    0.142795
  12 H :    0.173793
  13 H :    0.125084
  14 H :    0.127720
  15 H :    0.134072
  16 H :    0.119167
  17 H :    0.116786
  18 H :    0.121817
  19 H :    0.118436

  Mayer bond orders larger than 0.1
B(  0-C ,  1-C ) :   0.9085 B(  0-C ,  8-H ) :   0.9346 B(  0-C ,  9-H ) :   0.9306
B(  0-C , 10-H ) :   0.9399 B(  1-C ,  2-O ) :   0.9770 B(  1-C ,  3-C ) :   0.8754
B(  1-C , 11-H ) :   0.9334 B(  2-O , 12-H ) :   0.8451 B(  3-C ,  4-C ) :   0.8999
B(  3-C ,  5-C ) :   0.9383 B(  3-C ,  7-C ) :   0.9497 B(  4-C , 13-H ) :   0.9350
B(  4-C , 14-H ) :   0.9341 B(  4-C , 15-H ) :   0.9334 B(  5-C ,  6-O ) :   0.9671
B(  5-C , 16-H ) :   0.9008 B(  5-C , 17-H ) :   0.9068 B(  6-O ,  7-C ) :   0.9525
B(  7-C , 18-H ) :   0.9052 B(  7-C , 19-H ) :   0.9062

MP2 TOTAL ENERGY:     -385.490969616 Eh
FINAL SINGLE POINT ENERGY      -385.490969616243

DIPOLE MOMENT
-------------
                                X             Y             Z
Electronic contribution:      0.31570      -4.97573      -1.51366
Nuclear contribution   :      0.20350       5.85060       1.67589
                        -----------------------------------------
Total Dipole Moment    :      0.51920       0.87486       0.16223
                        -----------------------------------------
Magnitude (a.u.)       :      1.03018
Magnitude (Debye)      :      2.61850

                             ****ORCA TERMINATED NORMALLY****
TOTAL RUN TIME: 0 days 0 hours 13 minutes 43 seconds 999 msec
