                         Program Version 3.0.3 - RELEASE   -
|  1> ! RI-MP2 RIJK def2-TZVP def2-TZVP/C def2-TZVP/JK TIGHTSCF
|  2> % maxcore 2000
|  3> % mp2 density relaxed end
|  4> *xyz 0 1
|  5>  N       -0.1645465647     1.2756010481    -0.1111356216
|  6>  C       -0.0433990290     0.0052133867    -0.0035788300
|  7>  C        1.2042104183    -0.7521133959     0.0578933356
|  8>  N        1.2893689696    -2.0257364623     0.1667699405
|  9>  O        0.1007345804    -2.7462680719     0.2315776910
| 10>  N       -1.1295902427    -2.1550218657     0.1833380042
| 11>  C       -1.2144773217    -0.8717749895     0.0736986774
| 12>  C       -2.6119887684    -0.2959267114     0.0267428165
| 13>  O       -3.6077277407    -0.9666864233     0.0859435857
| 14>  H        0.7504678472     1.7310233453    -0.1519038159
| 15>  H        2.1599589781    -0.2327844954     0.0108911323
| 16>  H       -2.6284142863     0.8035150655    -0.0674634957
| 17> *
| 18>
| 19>                          ****END OF INPUT****

CARTESIAN COORDINATES (ANGSTROEM)
---------------------------------
  N     -0.164547    1.275601   -0.111136
  C     -0.043399    0.005213   -0.003579
  C      1.204210   -0.752113    0.057893
  N      1.289369   -2.025736    0.166770
  O      0.100735   -2.746268    0.231578
  N     -1.129590   -2.155022    0.183338
  C     -1.214477   -0.871775    0.073699
  C     -2.611989   -0.295927    0.026743
  O     -3.607728   -0.966686    0.085944
  H      0.750468    1.731023   -0.151904
  H      2.159959   -0.232784    0.010891
  H     -2.628414    0.803515   -0.067463

 Total Charge           Charge          ....    0
 Multiplicity           Mult            ....    1
 Number of Electrons    NEL             ....   64
 Basis Dimension        Dim             ....  297

ORBITAL ENERGIES
----------------

  NO   OCC          E(Eh)            E(eV)
   0   2.0000     -20.696438      -563.1787
   1   2.0000     -20.581178      -560.0423
   2   2.0000     -15.698086      -427.1666
   3   2.0000     -15.694866      -427.0790
   4   2.0000     -15.606492      -424.6742
   5   2.0000     -11.357289      -309.0475
   6   2.0000     -11.351968      -308.9028
   7   2.0000     -11.334092      -308.4163
   8   2.0000     -11.327945      -308.2491
   9   2.0000      -1.539771       -41.8993
  10   2.0000      -1.419082       -38.6152
  11   2.0000      -1.282440       -34.8970
  12   2.0000      -1.277599       -34.7652
  13   2.0000      -1.183557       -32.2062
  14   2.0000      -0.984383       -26.7864
  15   2.0000      -0.952384       -25.9157
  16   2.0000      -0.869486       -23.6599
  17   2.0000      -0.799370       -21.7520
  18   2.0000      -0.752322       -20.4717
  19   2.0000      -0.709145       -19.2968
  20   2.0000      -0.702542       -19.1171
  21   2.0000      -0.684323       -18.6214
  22   2.0000      -0.647261       -17.6129
  23   2.0000      -0.630501       -17.1568
  24   2.0000      -0.575510       -15.6604
  25   2.0000      -0.560284       -15.2461
  26   2.0000      -0.543159       -14.7801
  27   2.0000      -0.523746       -14.2518
  28   2.0000      -0.494331       -13.4514
  29   2.0000      -0.478583       -13.0229
  30   2.0000      -0.434981       -11.8364
  31   2.0000      -0.397594       -10.8191
  32   0.0000       0.033394         0.9087
  33   0.0000       0.047561         1.2942
  34   0.0000       0.117226         3.1899
  35   0.0000       0.154224         4.1966
  36   0.0000       0.155890         4.2420

MULLIKEN ATOMIC CHARGES
-----------------------
   0 N :   -0.340960
   1 C :    0.036057
   2 C :   -0.078991
   3 N :   -0.034329
   4 O :   -0.049592
   5 N :   -0.006038
   6 C :    0.108697
   7 C :    0.054308
   8 O :   -0.219456
   9 H :    0.219394
  10 H :    0.160107
  11 H :    0.150803
Sum of atomic charges:   -0.0000000

LOEWDIN ATOMIC CHARGES
----------------------
   0 N :   -0.007008
   1 C :   -0.290771
   2 C :   -0.207523
   3 N :    0.068270
   4 O :    0.161600
   5 N :    0.113208
   6 C :   -0.220847
   7 C :   -0.247861
   8 O :    0.175592
   9 H :    0.167246
  10 H :    0.156735
  11 H :    0.131359

  Mayer bond orders larger than 0.1
B(  0-N ,  1-C ) :   1.8863 B(  0-N ,  9-H ) :   0.8582 B(  1-C ,  2-C ) :   0.9943
B(  1-C ,  6-C ) :   0.9435 B(  2-C ,  3-N ) :   1.7339 B(  2-C , 10-H ) :   0.9258
B(  3-N ,  4-O ) :   0.8408 B(  4-O ,  5-N ) :   0.8728 B(  5-N ,  6-C ) :   1.6951
B(  6-C ,  7-C ) :   0.8161 B(  7-C ,  8-O ) :   2.0169 B(  7-C , 11-H ) :   0.9589

MP2 TOTAL ENERGY:     -467.950109422 Eh
FINAL SINGLE POINT ENERGY      -467.950109422330

DIPOLE MOMENT
-------------
                                X             Y             Z
Electronic contribution:     -0.85846      -3.67972       0.31665
Nuclear contribution   :      2.22306       4.85049      -0.42000
                        -----------------------------------------
Total Dipole Moment    :      1.36461       1.17078      -0.10335
                        -----------------------------------------
Magnitude (a.u.)       :      1.80099
Magnitude (Debye)      :      4.57775

                             ****ORCA TERMINATED NORMALLY****
TOTAL RUN TIME: 0 days 0 hours 13 minutes 53 seconds 543 msec
