                         Program Version 3.0.3 - RELEASE   -
|  1> ! RI-MP2 RIJK def2-TZVP def2-TZVP/C def2-TZVP/JK TIGHTSCF
|  2> % maxcore 2000
|  3> % mp2 density relaxed end
|  4> *xyz 0 1
|  5>  C        0.0288866165     1.5625870956    -0.0008981502
|  6>  C       -0.0409668051     0.0340528454    -0.0474911761
|  7>  C        0.7510172196    -0.5737728132    -1.1992866156
|  8>  C        0.7326271921    -2.0937875776    -1.2441354383
|  9>  C        1.4470761603    -2.5263346025    -2.5112512411
| 10>  O        0.9010926979    -1.8809218246    -3.6675948593
| 11>  C        0.4594373843    -0.5933031149    -3.6154355852
| 12>  N        0.2242539916     0.0852686862    -4.6539380034
| 13>  O        0.1781300636    -0.0525851465    -2.4122746933
| 14>  H        1.0603461592     1.9071980754     0.1325225540
| 15>  H       -0.3529847856     1.9952805939    -0.9283202747
| 16>  H       -0.5634983734     1.9528684799     0.8315288270
| 17>  H        0.3481171816    -0.3928929278     0.8851946244
| 18>  H       -1.0833589372    -0.2943952079    -0.1378719644
| 19>  H        1.7954379222    -0.2264474138    -1.1440599900
| 20>  H        1.2388677666    -2.5100162677    -0.3674583284
| 21>  H       -0.3025357287    -2.4529285461    -1.2459703821
| 22>  H        2.5185980742    -2.2901881474    -2.4468748141
| 23>  H        1.3472355650    -3.5975021069    -2.7018700428
| 24>  H        0.4353507255    -0.4758733594    -5.4766554966
| 25> *
| 26>
| 27>                          ****END OF INPUT****

CARTESIAN COORDINATES (ANGSTROEM)
---------------------------------
  C      0.028887    1.562587   -0.000898
  C     -0.040967    0.034053   -0.047491
  C      0.751017   -0.573773   -1.199287
  C      0.732627   -2.093788   -1.244135
  C      1.447076   -2.526335   -2.511251
  O      0.901093   -1.880922   -3.667595
  C      0.459437   -0.593303   -3.615436
  N      0.224254    0.085269   -4.653938
  O      0.178130   -0.052585   -2.412275
  H      1.060346    1.907198    0.132523
  H     -0.352985    1.995281   -0.928320
  H     -0.563498    1.952868    0.831529
  H      0.348117   -0.392893    0.885195
  H     -1.083359   -0.294395   -0.137872
  H      1.795438   -0.226447   -1.144060
  H      1.238868   -2.510016   -0.367458
  H     -0.302536   -2.452929   -1.245970
  H      2.518598   -2.290188   -2.446875
  H      1.347236   -3.597502   -2.701870
  H      0.435351   -0.475873   -5.476655

 Total Charge           Charge          ....    0
 Multiplicity           Mult            ....    1
 Number of Electrons    NEL             ....   70
 Basis Dimension        Dim             ....  345

ORBITAL ENERGIES
----------------

  NO   OCC          E(Eh)            E(eV)
   0   2.0000     -20.600662      -560.5725
   1   2.0000     -20.592404      -560.3478
   2   2.0000     -15.512738      -422.1231
   3   2.0000     -11.385158      -309.8059
   4   2.0000     -11.307672      -307.6974
   5   2.0000     -11.306987      -307.6787
   6   2.0000     -11.249294      -306.1089
   7   2.0000     -11.235725      -305.7396
   8   2.0000     -11.216898      -305.2273
   9   2.0000      -1.469254       -39.9804
  10   2.0000      -1.385401       -37.6987
  11   2.0000      -1.190720       -32.4011
  12   2.0000      -1.093961       -29.7682
  13   2.0000      -1.039125       -28.2760
  14   2.0000      -0.945895       -25.7391
  15   2.0000      -0.888099       -24.1664
  16   2.0000      -0.833553       -22.6821
  17   2.0000      -0.773233       -21.0408
  18   2.0000      -0.722878       -19.6705
  19   2.0000      -0.701392       -19.0858
  20   2.0000      -0.667909       -18.1747
  21   2.0000      -0.651466       -17.7273
  22   2.0000      -0.632012       -17.1979
  23   2.0000      -0.606442       -16.5021
  24   2.0000      -0.600000       -16.3268
  25   2.0000      -0.592205       -16.1147
  26   2.0000      -0.534867       -14.5545
  27   2.0000      -0.534066       -14.5327
  28   2.0000      -0.523901       -14.2561
  29   2.0000      -0.499999       -13.6057
  30   2.0000      -0.495572       -13.4852
  31   2.0000      -0.475844       -12.9484
  32   2.0000      -0.460387       -12.5278
  33   2.0000      -0.433927       -11.8077
  34   2.0000      -0.379085       -10.3154
  35   0.0000       0.122743         3.3400
  36   0.0000       0.147247         4.0068
  37   0.0000       0.149797         4.0762
  38   0.0000       0.172829         4.7029
  39   0.0000       0.183682         4.9982

MULLIKEN ATOMIC CHARGES
-----------------------
   0 C :   -0.399839
   1 C :   -0.172854
   2 C :    0.026449
   3 C :   -0.246119
   4 C :   -0.044320
   5 O :   -0.271500
   6 C :    0.259809
   7 N :   -0.391070
   8 O :   -0.227418
   9 H :    0.118011
  10 H :    0.161889
  11 H :    0.134783
  12 H :    0.106972
  13 H :    0.116481
  14 H :    0.089503
  15 H :    0.134655
  16 H :    0.130567
  17 H :    0.111794
  18 H :    0.136940
  19 H :    0.225270
Sum of atomic charges:    0.0000000

LOEWDIN ATOMIC CHARGES
----------------------
   0 C :   -0.313537
   1 C :   -0.269878
   2 C :   -0.297896
   3 C :   -0.251592
   4 C :   -0.284918
   5 O :    0.229557
   6 C :   -0.549030
   7 N :   -0.083602
   8 O :    0.284069
   9 H :    0.121198
  10 H :    0.130727
  11 H :    0.122218
  12 H :    0.142170
  13 H :    0.143310
  14 H :    0.146114
  15 H :    0.150780
  16 H :    0.148576
  17 H :    0.128768
  18 H :    0.133620
  19 H :    0.169348

  Mayer bond orders larger than 0.1
B(  0-C ,  1-C ) :   0.9293 B(  0-C ,  9-H ) :   0.9354 B(  0-C , 10-H ) :   0.9350
B(  0-C , 11-H ) :   0.9395 B(  1-C ,  2-C ) :   0.9357 B(  1-C , 12-H ) :   0.9266
B(  1-C , 13-H ) :   0.9239 B(  2-C ,  3-C ) :   0.9176 B(  2-C ,  8-O ) :   0.8639
B(  2-C , 14-H ) :   0.9231 B(  3-C ,  4-C ) :   0.9424 B(  3-C , 15-H ) :   0.9204
B(  3-C , 16-H ) :   0.9193 B(  4-C ,  5-O ) :   0.8748 B(  4-C , 17-H ) :   0.9288
B(  4-C , 18-H ) :   0.9335 B(  5-O ,  6-C ) :   1.0824 B(  6-C ,  7-N ) :   1.9964
B(  6-C ,  8-O ) :   1.1004 B(  7-N , 19-H ) :   0.8524

MP2 TOTAL ENERGY:     -439.586014862 Eh
FINAL SINGLE POINT ENERGY      -439.586014862072

DIPOLE MOMENT
-------------
                                X             Y             Z
Electronic contribution:      0.00994      -2.11001      -9.04948
Nuclear contribution   :      0.65089       0.91734      10.40587
                        -----------------------------------------
Total Dipole Moment    :      0.66084      -1.19267       1.35640
                        -----------------------------------------
Magnitude (a.u.)       :      1.92327
Magnitude (Debye)      :      4.88857

                             ****ORCA TERMINATED NORMALLY****
TOTAL RUN TIME: 0 days 0 hours 15 minutes 42 seconds 487 msec
