                         Program Version 3.0.3 - RELEASE   -
|  1> ! RI-MP2 RIJK def2-TZVP def2-TZVP/C def2-TZVP/JK TIGHTSCF
|  2> % maxcore 2000
|  3> % mp2 density relaxed end
|  4> *xyz 0 1
|  5>  O       -0.2145167390     1.3351859260     0.0877644561
|  6>  C        0.0285702031    -0.0485094732    -0.0274408118
|  7>  C        0.8033817605    -0.3624047388    -1.2523044467
|  8>  N        1.4049704434    -0.5979562870    -2.2096803489
|  9>  C        0.7093338025    -0.6088100299     1.1890869248
| 10>  C        0.4005206652    -1.6219645251     2.0376201553
| 11>  O        1.3232988786    -1.6795540020     2.9911531169
| 12>  N        2.2548148805    -0.6284170562     2.7139101210
| 13>  N        1.8686053540    -0.0425194490     1.6739620961
| 14>  H        0.6288234761     1.7694612473     0.2703689388
| 15>  H       -0.9533725040    -0.5216007316    -0.1320961095
| 16>  H       -0.4009479609    -2.3415193407     2.0769557779
| 17> *
| 18>
| 19>                          ****END OF INPUT****

CARTESIAN COORDINATES (ANGSTROEM)
---------------------------------
  O     -0.214517    1.335186    0.087764
  C      0.028570   -0.048509   -0.027441
  C      0.803382   -0.362405   -1.252304
  N      1.404970   -0.597956   -2.209680
  C      0.709334   -0.608810    1.189087
  C      0.400521   -1.621965    2.037620
  O      1.323299   -1.679554    2.991153
  N      2.254815   -0.628417    2.713910
  N      1.868605   -0.042519    1.673962
  H      0.628823    1.769461    0.270369
  H     -0.953373   -0.521601   -0.132096
  H     -0.400948   -2.341519    2.076956

 Total Charge           Charge          ....    0
 Multiplicity           Mult            ....    1
 Number of Electrons    NEL             ....   64
 Basis Dimension        Dim             ....  297

ORBITAL ENERGIES
----------------

  NO   OCC          E(Eh)            E(eV)
   0   2.0000     -20.691283      -563.0384
   1   2.0000     -20.609894      -560.8237
   2   2.0000     -15.722999      -427.8446
   3   2.0000     -15.668867      -426.3715
   4   2.0000     -15.593934      -424.3325
   5   2.0000     -11.379439      -309.6503
   6   2.0000     -11.360621      -309.1382
   7   2.0000     -11.312931      -307.8405
   8   2.0000     -11.291058      -307.2453
   9   2.0000      -1.560352       -42.4593
  10   2.0000      -1.423704       -38.7410
  11   2.0000      -1.347485       -36.6669
  12   2.0000      -1.237617       -33.6773
  13   2.0000      -1.150536       -31.3077
  14   2.0000      -1.027530       -27.9605
  15   2.0000      -0.911881       -24.8135
  16   2.0000      -0.882603       -24.0168
  17   2.0000      -0.786337       -21.3973
  18   2.0000      -0.784608       -21.3503
  19   2.0000      -0.712632       -19.3917
  20   2.0000      -0.705373       -19.1942
  21   2.0000      -0.680933       -18.5291
  22   2.0000      -0.628933       -17.1141
  23   2.0000      -0.600056       -16.3284
  24   2.0000      -0.585049       -15.9200
  25   2.0000      -0.576926       -15.6990
  26   2.0000      -0.528715       -14.3871
  27   2.0000      -0.522144       -14.2083
  28   2.0000      -0.504286       -13.7223
  29   2.0000      -0.488610       -13.2958
  30   2.0000      -0.481407       -13.0998
  31   2.0000      -0.409927       -11.1547
  32   0.0000       0.071388         1.9426
  33   0.0000       0.115943         3.1550
  34   0.0000       0.123950         3.3729
  35   0.0000       0.149353         4.0641
  36   0.0000       0.160072         4.3558

MULLIKEN ATOMIC CHARGES
-----------------------
   0 O :   -0.437616
   1 C :    0.226243
   2 C :   -0.177146
   3 N :   -0.048744
   4 C :   -0.009092
   5 C :   -0.020275
   6 O :   -0.081466
   7 N :   -0.024064
   8 N :   -0.111015
   9 H :    0.345018
  10 H :    0.150711
  11 H :    0.187447
Sum of atomic charges:    0.0000000

LOEWDIN ATOMIC CHARGES
----------------------
   0 O :    0.028906
   1 C :   -0.311539
   2 C :   -0.159576
   3 N :    0.084627
   4 C :   -0.257605
   5 C :   -0.241415
   6 O :    0.272072
   7 N :    0.005418
   8 N :    0.057261
   9 H :    0.192419
  10 H :    0.179225
  11 H :    0.150207

  Mayer bond orders larger than 0.1
B(  0-O ,  1-C ) :   0.9526 B(  0-O ,  9-H ) :   0.8226 B(  1-C ,  2-C ) :   0.9086
B(  1-C ,  4-C ) :   0.9111 B(  1-C , 10-H ) :   0.9148 B(  2-C ,  3-N ) :   2.8324
B(  4-C ,  5-C ) :   1.4901 B(  4-C ,  8-N ) :   1.2100 B(  5-C ,  6-O ) :   1.1645
B(  5-C , 11-H ) :   0.9067 B(  6-O ,  7-N ) :   0.8660 B(  7-N ,  8-N ) :   1.4446

MP2 TOTAL ENERGY:     -468.024362339 Eh
FINAL SINGLE POINT ENERGY      -468.024362339227

DIPOLE MOMENT
-------------
                                X             Y             Z
Electronic contribution:      2.11662      -0.71782       1.03847
Nuclear contribution   :     -3.32704       0.24517      -0.27431
                        -----------------------------------------
Total Dipole Moment    :     -1.21041      -0.47265       0.76415
                        -----------------------------------------
Magnitude (a.u.)       :      1.50746
Magnitude (Debye)      :      3.83166

                             ****ORCA TERMINATED NORMALLY****
TOTAL RUN TIME: 0 days 0 hours 12 minutes 49 seconds 484 msec
