                         Program Version 3.0.3 - RELEASE   -
|  1> ! RI-MP2 RIJK def2-TZVP def2-TZVP/C def2-TZVP/JK TIGHTSCF
|  2> % maxcore 2000
|  3> % mp2 density relaxed end
|  4> *xyz 0 1
|  5>  O        0.1163972643     1.1994846809    -0.4773781518
|  6>  C       -0.0681227571    -0.1360524327    -0.0755420034
|  7>  C       -1.5544414438    -0.4882952264     0.1449000343
|  8>  C       -2.3838193287    -0.4260637462    -1.1865560194
|  9>  C       -2.3902400580    -1.9627115668    -1.1892906840
| 10>  O       -2.6999140433    -2.7880829322    -1.9931832867
| 11>  C       -1.8010557067    -2.0358074836     0.2321411134
| 12>  C       -2.0857768897     0.3052772139     1.2439972059
| 13>  N       -2.4719539602     0.9640175307     2.1130116097
| 14>  H       -0.1161186521     1.7738288928     0.2614763017
| 15>  H        0.3156324147    -0.7595942114    -0.8904025723
| 16>  H        0.5010456416    -0.3829150414     0.8325611600
| 17>  H       -3.3899049859    -0.0147754691    -1.0646167319
| 18>  H       -1.8938133967     0.0790825541    -2.0216799030
| 19>  H       -0.9136572458    -2.6605389752     0.3657446623
| 20>  H       -2.5504675927    -2.3229961174     0.9746845051
| 21> *
| 22>
| 23>                          ****END OF INPUT****

CARTESIAN COORDINATES (ANGSTROEM)
---------------------------------
  O      0.116397    1.199485   -0.477378
  C     -0.068123   -0.136052   -0.075542
  C     -1.554441   -0.488295    0.144900
  C     -2.383819   -0.426064   -1.186556
  C     -2.390240   -1.962712   -1.189291
  O     -2.699914   -2.788083   -1.993183
  C     -1.801056   -2.035807    0.232141
  C     -2.085777    0.305277    1.243997
  N     -2.471954    0.964018    2.113012
  H     -0.116119    1.773829    0.261476
  H      0.315632   -0.759594   -0.890403
  H      0.501046   -0.382915    0.832561
  H     -3.389905   -0.014775   -1.064617
  H     -1.893813    0.079083   -2.021680
  H     -0.913657   -2.660539    0.365745
  H     -2.550468   -2.322996    0.974685

 Total Charge           Charge          ....    0
 Multiplicity           Mult            ....    1
 Number of Electrons    NEL             ....   66
 Basis Dimension        Dim             ....  321

ORBITAL ENERGIES
----------------

  NO   OCC          E(Eh)            E(eV)
   0   2.0000     -20.588045      -560.2292
   1   2.0000     -20.577915      -559.9535
   2   2.0000     -15.590715      -424.2449
   3   2.0000     -11.360154      -309.1255
   4   2.0000     -11.320001      -308.0329
   5   2.0000     -11.313163      -307.8468
   6   2.0000     -11.291252      -307.2506
   7   2.0000     -11.278836      -306.9127
   8   2.0000     -11.273077      -306.7560
   9   2.0000      -1.422001       -38.6946
  10   2.0000      -1.397413       -38.0255
  11   2.0000      -1.242327       -33.8054
  12   2.0000      -1.181824       -32.1591
  13   2.0000      -1.004302       -27.3284
  14   2.0000      -0.968128       -26.3441
  15   2.0000      -0.904982       -24.6258
  16   2.0000      -0.759558       -20.6686
  17   2.0000      -0.732061       -19.9204
  18   2.0000      -0.727883       -19.8067
  19   2.0000      -0.694843       -18.9076
  20   2.0000      -0.656540       -17.8654
  21   2.0000      -0.637686       -17.3523
  22   2.0000      -0.620488       -16.8843
  23   2.0000      -0.596714       -16.2374
  24   2.0000      -0.590977       -16.0813
  25   2.0000      -0.567656       -15.4467
  26   2.0000      -0.556465       -15.1422
  27   2.0000      -0.530975       -14.4486
  28   2.0000      -0.518366       -14.1054
  29   2.0000      -0.497874       -13.5478
  30   2.0000      -0.467953       -12.7337
  31   2.0000      -0.459719       -12.5096
  32   2.0000      -0.425581       -11.5806
  33   0.0000       0.101891         2.7726
  34   0.0000       0.116752         3.1770
  35   0.0000       0.135398         3.6844
  36   0.0000       0.146767         3.9937
  37   0.0000       0.152730         4.1560

MULLIKEN ATOMIC CHARGES
-----------------------
   0 O :   -0.465966
   1 C :   -0.072589
   2 C :    0.231828
   3 C :   -0.229618
   4 C :    0.090304
   5 O :   -0.227343
   6 C :   -0.243481
   7 C :   -0.293502
   8 N :   -0.037784
   9 H :    0.332660
  10 H :    0.131786
  11 H :    0.134041
  12 H :    0.162591
  13 H :    0.168830
  14 H :    0.153280
  15 H :    0.164963
Sum of atomic charges:   -0.0000000

LOEWDIN ATOMIC CHARGES
----------------------
   0 O :   -0.018266
   1 C :   -0.296309
   2 C :   -0.251065
   3 C :   -0.142973
   4 C :   -0.308267
   5 O :    0.180939
   6 C :   -0.143934
   7 C :   -0.168124
   8 N :    0.069061
   9 H :    0.184544
  10 H :    0.142043
  11 H :    0.130956
  12 H :    0.158985
  13 H :    0.154113
  14 H :    0.149257
  15 H :    0.159037

  Mayer bond orders larger than 0.1
B(  0-O ,  1-C ) :   0.9583 B(  0-O ,  9-H ) :   0.8357 B(  1-C ,  2-C ) :   0.9056
B(  1-C , 10-H ) :   0.9097 B(  1-C , 11-H ) :   0.9317 B(  2-C ,  3-C ) :   0.8721
B(  2-C ,  6-C ) :   0.8716 B(  2-C ,  7-C ) :   0.8905 B(  3-C ,  4-C ) :   0.8854
B(  3-C ,  6-C ) :  -0.1128 B(  3-C , 12-H ) :   0.8994 B(  3-C , 13-H ) :   0.8903
B(  4-C ,  5-O ) :   2.0477 B(  4-C ,  6-C ) :   0.8879 B(  6-C , 14-H ) :   0.8987
B(  6-C , 15-H ) :   0.8946 B(  7-C ,  8-N ) :   2.8726

MP2 TOTAL ENERGY:     -437.179633177 Eh
FINAL SINGLE POINT ENERGY      -437.179633177201

DIPOLE MOMENT
-------------
                                X             Y             Z
Electronic contribution:     -2.78891      -0.08699       0.41414
Nuclear contribution   :      3.35160      -0.17801      -0.33959
                        -----------------------------------------
Total Dipole Moment    :      0.56269      -0.26501       0.07456
                        -----------------------------------------
Magnitude (a.u.)       :      0.62642
Magnitude (Debye)      :      1.59224

                             ****ORCA TERMINATED NORMALLY****
TOTAL RUN TIME: 0 days 0 hours 15 minutes 12 seconds 74 msec
