                         Program Version 3.0.3 - RELEASE   -
|  1> ! RI-MP2 RIJK def2-TZVP def2-TZVP/C def2-TZVP/JK TIGHTSCF
|  2> % maxcore 2000
|  3> % mp2 density relaxed end
|  4> *xyz 0 1
|  5>  O        0.2624099735     1.1525619819    -0.7184083424
|  6>  C        0.1515265176    -0.0920642463    -0.0738898219
|  7>  C        0.2053289860    -0.1341254924     1.4775975254
|  8>  N       -1.1324944046    -0.8052672548     1.5575103448
|  9>  C       -2.2353925813     0.1796384168     1.8056073202
| 10>  C       -2.3786416543     0.5017241668     0.2977566857
| 11>  C       -1.3104962634    -0.6011266929     0.0398381191
| 12>  C       -1.6931443968    -1.7209346784    -0.7851463398
| 13>  C       -2.0075548773    -2.6457699152    -1.4874240973
| 14>  H        1.1944887604     1.3442306557    -0.8587439164
| 15>  H        0.7957940234    -0.8451115779    -0.5419719071
| 16>  H        1.0044096842    -0.7420016458     1.9117829342
| 17>  H        0.2286401801     0.8646342747     1.9284481594
| 18>  H       -3.1076431786    -0.3172866844     2.2401847613
| 19>  H       -1.9473612572     1.0083436410     2.4604200617
| 20>  H       -3.3536814414     0.2901092360    -0.1415020984
| 21>  H       -2.0494181047     1.4940955045    -0.0116780930
| 22>  H       -2.2875785357    -3.4657647994    -2.1012813356
| 23> *
| 24>
| 25>                          ****END OF INPUT****

CARTESIAN COORDINATES (ANGSTROEM)
---------------------------------
  O      0.262410    1.152562   -0.718408
  C      0.151527   -0.092064   -0.073890
  C      0.205329   -0.134125    1.477598
  N     -1.132494   -0.805267    1.557510
  C     -2.235393    0.179638    1.805607
  C     -2.378642    0.501724    0.297757
  C     -1.310496   -0.601127    0.039838
  C     -1.693144   -1.720935   -0.785146
  C     -2.007555   -2.645770   -1.487424
  H      1.194489    1.344231   -0.858744
  H      0.795794   -0.845112   -0.541972
  H      1.004410   -0.742002    1.911783
  H      0.228640    0.864634    1.928448
  H     -3.107643   -0.317287    2.240185
  H     -1.947361    1.008344    2.460420
  H     -3.353681    0.290109   -0.141502
  H     -2.049418    1.494096   -0.011678
  H     -2.287579   -3.465765   -2.101281

 Total Charge           Charge          ....    0
 Multiplicity           Mult            ....    1
 Number of Electrons    NEL             ....   66
 Basis Dimension        Dim             ....  333

ORBITAL ENERGIES
----------------

  NO   OCC          E(Eh)            E(eV)
   0   2.0000     -20.571249      -559.7721
   1   2.0000     -15.550807      -423.1590
   2   2.0000     -11.294409      -307.3365
   3   2.0000     -11.284315      -307.0618
   4   2.0000     -11.253083      -306.2120
   5   2.0000     -11.252190      -306.1877
   6   2.0000     -11.231106      -305.6139
   7   2.0000     -11.228761      -305.5501
   8   2.0000     -11.224525      -305.4349
   9   2.0000      -1.381084       -37.5812
  10   2.0000      -1.262045       -34.3420
  11   2.0000      -1.045590       -28.4520
  12   2.0000      -1.029987       -28.0274
  13   2.0000      -0.968959       -26.3667
  14   2.0000      -0.893728       -24.3196
  15   2.0000      -0.836220       -22.7547
  16   2.0000      -0.778690       -21.1892
  17   2.0000      -0.719277       -19.5725
  18   2.0000      -0.700520       -19.0621
  19   2.0000      -0.675608       -18.3842
  20   2.0000      -0.657434       -17.8897
  21   2.0000      -0.624123       -16.9833
  22   2.0000      -0.596835       -16.2407
  23   2.0000      -0.558725       -15.2037
  24   2.0000      -0.543621       -14.7927
  25   2.0000      -0.529748       -14.4152
  26   2.0000      -0.513602       -13.9758
  27   2.0000      -0.474858       -12.9215
  28   2.0000      -0.455113       -12.3843
  29   2.0000      -0.439287       -11.9536
  30   2.0000      -0.388600       -10.5743
  31   2.0000      -0.377773       -10.2797
  32   2.0000      -0.363350        -9.8873
  33   0.0000       0.125837         3.4242
  34   0.0000       0.152179         4.1410
  35   0.0000       0.160870         4.3775
  36   0.0000       0.162472         4.4211
  37   0.0000       0.175441         4.7740

MULLIKEN ATOMIC CHARGES
-----------------------
   0 O :   -0.448844
   1 C :   -0.043478
   2 C :   -0.132260
   3 N :   -0.185006
   4 C :   -0.171863
   5 C :   -0.271420
   6 C :    0.088105
   7 C :   -0.079971
   8 C :   -0.102141
   9 H :    0.322579
  10 H :    0.102755
  11 H :    0.118837
  12 H :    0.099180
  13 H :    0.121258
  14 H :    0.113376
  15 H :    0.130626
  16 H :    0.145075
  17 H :    0.193190
Sum of atomic charges:   -0.0000000

LOEWDIN ATOMIC CHARGES
----------------------
   0 O :   -0.006975
   1 C :   -0.286441
   2 C :   -0.236359
   3 N :    0.113091
   4 C :   -0.249878
   5 C :   -0.183601
   6 C :   -0.218273
   7 C :   -0.065942
   8 C :   -0.080671
   9 H :    0.179189
  10 H :    0.137346
  11 H :    0.123346
  12 H :    0.125258
  13 H :    0.126534
  14 H :    0.119394
  15 H :    0.136149
  16 H :    0.140401
  17 H :    0.127432

  Mayer bond orders larger than 0.1
B(  0-O ,  1-C ) :   1.1530 B(  0-O ,  9-H ) :   0.8404 B(  1-C ,  2-C ) :   0.9276
B(  1-C ,  6-C ) :   0.8533 B(  1-C , 10-H ) :   0.9394 B(  2-C ,  3-N ) :   0.9196
B(  2-C , 11-H ) :   0.9096 B(  2-C , 12-H ) :   0.9167 B(  3-N ,  4-C ) :   0.9111
B(  3-N ,  6-C ) :   0.8674 B(  4-C ,  5-C ) :   0.9664 B(  4-C , 13-H ) :   0.9215
B(  4-C , 14-H ) :   0.9359 B(  5-C ,  6-C ) :   0.8853 B(  5-C , 15-H ) :   0.9229
B(  5-C , 16-H ) :   0.8996 B(  6-C ,  7-C ) :   1.2613 B(  6-C ,  8-C ) :  -0.1400
B(  7-C ,  8-C ) :   2.5698 B(  8-C , 17-H ) :   0.8703

MP2 TOTAL ENERGY:     -401.164042106 Eh
FINAL SINGLE POINT ENERGY      -401.164042106027

DIPOLE MOMENT
-------------
                                X             Y             Z
Electronic contribution:      0.38942      -2.50390      -2.61170
Nuclear contribution   :      0.17600       2.92512       2.48179
                        -----------------------------------------
Total Dipole Moment    :      0.56542       0.42122      -0.12991
                        -----------------------------------------
Magnitude (a.u.)       :      0.71694
Magnitude (Debye)      :      1.82232

                             ****ORCA TERMINATED NORMALLY****
TOTAL RUN TIME: 0 days 0 hours 20 minutes 26 seconds 68 msec
