                         Program Version 3.0.3 - RELEASE   -
|  1> ! RI-MP2 RIJK def2-TZVP def2-TZVP/C def2-TZVP/JK TIGHTSCF
|  2> % maxcore 2000
|  3> % mp2 density relaxed end
|  4> *xyz 0 1
|  5>  C        0.0302812439     1.4732844053     0.1217139376
|  6>  C       -0.0223610852     0.0228115599     0.0291005075
|  7>  C       -0.0756681781    -1.1786874199    -0.0373544644
|  8>  C       -0.0753833239    -2.6057255857    -0.1431359498
|  9>  C        0.9394043906    -3.3200738195    -1.0268620349
| 10>  O        0.4615763384    -4.6496350636    -1.1715742437
| 11>  C       -0.9487186952    -4.6749121735    -0.9854106462
| 12>  C       -1.2607466701    -3.4833428520    -0.1080768648
| 13>  O       -0.4033976388    -3.3871819053     1.0268682555
| 14>  H        0.9760358893     1.8610753509    -0.2719587150
| 15>  H       -0.7840199737     1.9397585411    -0.4434688240
| 16>  H       -0.0559605462     1.8014891671     1.1632223849
| 17>  H        1.0047494177    -2.7962074571    -1.9931834170
| 18>  H        1.9370821893    -3.3661586388    -0.5801068164
| 19>  H       -1.4936294648    -4.5816564779    -1.9393592370
| 20>  H       -1.2067433220    -5.6346917281    -0.5262616374
| 21>  H       -2.2738342313    -3.1087613629     0.0083484852
| 22> *
| 23>
| 24>                          ****END OF INPUT****

CARTESIAN COORDINATES (ANGSTROEM)
---------------------------------
  C      0.030281    1.473284    0.121714
  C     -0.022361    0.022812    0.029101
  C     -0.075668   -1.178687   -0.037354
  C     -0.075383   -2.605726   -0.143136
  C      0.939404   -3.320074   -1.026862
  O      0.461576   -4.649635   -1.171574
  C     -0.948719   -4.674912   -0.985411
  C     -1.260747   -3.483343   -0.108077
  O     -0.403398   -3.387182    1.026868
  H      0.976036    1.861075   -0.271959
  H     -0.784020    1.939759   -0.443469
  H     -0.055961    1.801489    1.163222
  H      1.004749   -2.796207   -1.993183
  H      1.937082   -3.366159   -0.580107
  H     -1.493629   -4.581656   -1.939359
  H     -1.206743   -5.634692   -0.526262
  H     -2.273834   -3.108761    0.008348

 Total Charge           Charge          ....    0
 Multiplicity           Mult            ....    1
 Number of Electrons    NEL             ....   66
 Basis Dimension        Dim             ....  327

ORBITAL ENERGIES
----------------

  NO   OCC          E(Eh)            E(eV)
   0   2.0000     -20.577474      -559.9415
   1   2.0000     -20.562239      -559.5270
   2   2.0000     -11.316415      -307.9353
   3   2.0000     -11.297966      -307.4333
   4   2.0000     -11.287918      -307.1599
   5   2.0000     -11.287860      -307.1583
   6   2.0000     -11.256760      -306.3120
   7   2.0000     -11.244456      -305.9772
   8   2.0000     -11.231704      -305.6302
   9   2.0000      -1.437321       -39.1115
  10   2.0000      -1.370437       -37.2915
  11   2.0000      -1.079060       -29.3627
  12   2.0000      -1.024105       -27.8673
  13   2.0000      -1.004795       -27.3419
  14   2.0000      -0.957595       -26.0575
  15   2.0000      -0.845277       -23.0012
  16   2.0000      -0.828795       -22.5527
  17   2.0000      -0.752157       -20.4672
  18   2.0000      -0.676449       -18.4071
  19   2.0000      -0.655390       -17.8341
  20   2.0000      -0.639183       -17.3930
  21   2.0000      -0.635834       -17.3019
  22   2.0000      -0.597970       -16.2716
  23   2.0000      -0.596705       -16.2372
  24   2.0000      -0.589308       -16.0359
  25   2.0000      -0.546536       -14.8720
  26   2.0000      -0.543650       -14.7935
  27   2.0000      -0.529297       -14.4029
  28   2.0000      -0.487565       -13.2673
  29   2.0000      -0.451358       -12.2821
  30   2.0000      -0.426237       -11.5985
  31   2.0000      -0.388962       -10.5842
  32   2.0000      -0.365478        -9.9452
  33   0.0000       0.130468         3.5502
  34   0.0000       0.153043         4.1645
  35   0.0000       0.161097         4.3837
  36   0.0000       0.169010         4.5990
  37   0.0000       0.182069         4.9544

MULLIKEN ATOMIC CHARGES
-----------------------
   0 C :   -0.473332
   1 C :    0.115668
   2 C :    0.032765
   3 C :   -0.081595
   4 C :   -0.035020
   5 O :   -0.322002
   6 C :    0.005319
   7 C :   -0.009921
   8 O :   -0.309549
   9 H :    0.165730
  10 H :    0.164820
  11 H :    0.169479
  12 H :    0.101152
  13 H :    0.124290
  14 H :    0.094181
  15 H :    0.121529
  16 H :    0.136487
Sum of atomic charges:    0.0000000

LOEWDIN ATOMIC CHARGES
----------------------
   0 C :   -0.289594
   1 C :   -0.073202
   2 C :   -0.041908
   3 C :   -0.293351
   4 C :   -0.248318
   5 O :    0.159114
   6 C :   -0.285461
   7 C :   -0.237070
   8 O :    0.207527
   9 H :    0.143265
  10 H :    0.142605
  11 H :    0.145156
  12 H :    0.131567
  13 H :    0.136766
  14 H :    0.127429
  15 H :    0.133926
  16 H :    0.141548

  Mayer bond orders larger than 0.1
B(  0-C ,  1-C ) :   0.8492 B(  0-C ,  9-H ) :   0.9455 B(  0-C , 10-H ) :   0.9447
B(  0-C , 11-H ) :   0.9422 B(  1-C ,  2-C ) :   2.6783 B(  1-C ,  3-C ) :  -0.2137
B(  2-C ,  3-C ) :   1.1120 B(  3-C ,  4-C ) :   0.9942 B(  3-C ,  7-C ) :   0.9410
B(  3-C ,  8-O ) :   0.8736 B(  4-C ,  5-O ) :   0.9445 B(  4-C , 12-H ) :   0.9214
B(  4-C , 13-H ) :   0.9114 B(  5-O ,  6-C ) :   0.9469 B(  6-C ,  7-C ) :   0.9492
B(  6-C , 14-H ) :   0.9175 B(  6-C , 15-H ) :   0.9071 B(  7-C ,  8-O ) :   0.9102
B(  7-C , 16-H ) :   0.9134

MP2 TOTAL ENERGY:     -421.064785107 Eh
FINAL SINGLE POINT ENERGY      -421.064785106916

DIPOLE MOMENT
-------------
                                X             Y             Z
Electronic contribution:      0.20496      -4.59548       1.78683
Nuclear contribution   :     -0.68842       5.54506      -2.31321
                        -----------------------------------------
Total Dipole Moment    :     -0.48345       0.94959      -0.52637
                        -----------------------------------------
Magnitude (a.u.)       :      1.18849
Magnitude (Debye)      :      3.02090

                             ****ORCA TERMINATED NORMALLY****
TOTAL RUN TIME: 0 days 0 hours 15 minutes 6 seconds 226 msec
