                         Program Version 3.0.3 - RELEASE   -
|  1> ! RI-MP2 RIJK def2-TZVP def2-TZVP/C def2-TZVP/JK TIGHTSCF
|  2> % maxcore 2000
|  3> % mp2 density relaxed end
|  4> *xyz 0 1
|  5>  N       -0.0311189010     1.3284524501     0.0097816251
|  6>  C        1.2732622932     1.7576669358    -0.0004659719
|  7>  N        2.1513246453     0.7883114557    -0.0141986607
|  8>  C        1.3877550119    -0.3681001433    -0.0130574276
|  9>  C        0.0091384659    -0.0507732000     0.0019594132
| 10>  N       -1.0159317980    -0.8898921648     0.0073255779
| 11>  C       -0.6508352796    -2.1767269431    -0.0031383854
| 12>  C        0.6790864242    -2.6261446533    -0.0183994576
| 13>  C        1.7323846074    -1.7172292712    -0.0236611495
| 14>  H       -0.8628128870     1.8950270205     0.0208603892
| 15>  H        1.5147924950     2.8115926549     0.0028943412
| 16>  H       -1.4623454244    -2.8994185713     0.0007916716
| 17>  H        0.8727276331    -3.6927426283    -0.0260264359
| 18>  H        2.7690113440    -2.0347826618    -0.0353811497
| 19> *
| 20>
| 21>                          ****END OF INPUT****

CARTESIAN COORDINATES (ANGSTROEM)
---------------------------------
  N     -0.031119    1.328452    0.009782
  C      1.273262    1.757667   -0.000466
  N      2.151325    0.788311   -0.014199
  C      1.387755   -0.368100   -0.013057
  C      0.009138   -0.050773    0.001959
  N     -1.015932   -0.889892    0.007326
  C     -0.650835   -2.176727   -0.003138
  C      0.679086   -2.626145   -0.018399
  C      1.732385   -1.717229   -0.023661
  H     -0.862813    1.895027    0.020860
  H      1.514792    2.811593    0.002894
  H     -1.462345   -2.899419    0.000792
  H      0.872728   -3.692743   -0.026026
  H      2.769011   -2.034783   -0.035381

 Total Charge           Charge          ....    0
 Multiplicity           Mult            ....    1
 Number of Electrons    NEL             ....   62
 Basis Dimension        Dim             ....  309

ORBITAL ENERGIES
----------------

  NO   OCC          E(Eh)            E(eV)
   0   2.0000     -15.623396      -425.1342
   1   2.0000     -15.569520      -423.6682
   2   2.0000     -15.559198      -423.3873
   3   2.0000     -11.322874      -308.1111
   4   2.0000     -11.307024      -307.6798
   5   2.0000     -11.274803      -306.8030
   6   2.0000     -11.260629      -306.4173
   7   2.0000     -11.256147      -306.2953
   8   2.0000     -11.235005      -305.7200
   9   2.0000      -1.359823       -37.0027
  10   2.0000      -1.253592       -34.1120
  11   2.0000      -1.187820       -32.3222
  12   2.0000      -1.076935       -29.3049
  13   2.0000      -1.017587       -27.6899
  14   2.0000      -0.885375       -24.0923
  15   2.0000      -0.850937       -23.1552
  16   2.0000      -0.838513       -22.8171
  17   2.0000      -0.753302       -20.4984
  18   2.0000      -0.700686       -19.0666
  19   2.0000      -0.678440       -18.4613
  20   2.0000      -0.633901       -17.2493
  21   2.0000      -0.627580       -17.0773
  22   2.0000      -0.597354       -16.2548
  23   2.0000      -0.578917       -15.7531
  24   2.0000      -0.544602       -14.8194
  25   2.0000      -0.510350       -13.8873
  26   2.0000      -0.479448       -13.0464
  27   2.0000      -0.451005       -12.2725
  28   2.0000      -0.415268       -11.3000
  29   2.0000      -0.350380        -9.5343
  30   2.0000      -0.314474        -8.5573
  31   0.0000       0.090951         2.4749
  32   0.0000       0.131790         3.5862
  33   0.0000       0.146149         3.9769
  34   0.0000       0.162521         4.4224
  35   0.0000       0.178275         4.8511

MULLIKEN ATOMIC CHARGES
-----------------------
   0 N :   -0.268669
   1 C :    0.082803
   2 N :   -0.266099
   3 C :    0.115271
   4 C :    0.146795
   5 N :   -0.243710
   6 C :   -0.080197
   7 C :   -0.039609
   8 C :   -0.253516
   9 H :    0.256716
  10 H :    0.154598
  11 H :    0.125130
  12 H :    0.135166
  13 H :    0.135320
Sum of atomic charges:   -0.0000000

LOEWDIN ATOMIC CHARGES
----------------------
   0 N :    0.192388
   1 C :   -0.275204
   2 N :    0.112484
   3 C :   -0.206763
   4 C :   -0.270172
   5 N :    0.141114
   6 C :   -0.215775
   7 C :   -0.155253
   8 C :   -0.094750
   9 H :    0.197102
  10 H :    0.134090
  11 H :    0.138456
  12 H :    0.149496
  13 H :    0.152788

  Mayer bond orders larger than 0.1
B(  0-N ,  1-C ) :   1.1444 B(  0-N ,  4-C ) :   1.1032 B(  0-N ,  9-H ) :   0.8549
B(  1-C ,  2-N ) :   1.5770 B(  1-C , 10-H ) :   0.9242 B(  2-N ,  3-C ) :   1.2615
B(  3-C ,  4-C ) :   1.1782 B(  3-C ,  8-C ) :   1.2854 B(  4-C ,  5-N ) :   1.4142
B(  5-N ,  6-C ) :   1.4108 B(  6-C ,  7-C ) :   1.2511 B(  6-C , 11-H ) :   0.9505
B(  7-C ,  8-C ) :   1.3814 B(  7-C , 12-H ) :   0.9190 B(  8-C , 13-H ) :   0.9302

MP2 TOTAL ENERGY:     -395.124859403 Eh
FINAL SINGLE POINT ENERGY      -395.124859403387

DIPOLE MOMENT
-------------
                                X             Y             Z
Electronic contribution:     -0.25787       2.12142       0.01394
Nuclear contribution   :     -0.16455      -1.73494      -0.00777
                        -----------------------------------------
Total Dipole Moment    :     -0.42241       0.38648       0.00617
                        -----------------------------------------
Magnitude (a.u.)       :      0.57257
Magnitude (Debye)      :      1.45535

                             ****ORCA TERMINATED NORMALLY****
TOTAL RUN TIME: 0 days 0 hours 16 minutes 56 seconds 364 msec
