                         Program Version 3.0.3 - RELEASE   -
|  1> ! RI-MP2 RIJK def2-TZVP def2-TZVP/C def2-TZVP/JK TIGHTSCF
|  2> % maxcore 2000
|  3> % mp2 density relaxed end
|  4> *xyz 0 1
|  5>  C       -0.3768883590     1.5116242095     0.0241220740
|  6>  C       -0.0017746470     0.0327528500     0.0542129547
|  7>  C        0.7556473377    -0.4672395412    -1.2046447428
|  8>  C        1.6390561679    -1.6556825673    -0.7436217152
|  9>  C        1.3682811031    -1.8318280995     0.7689178958
| 10>  O        2.4151387442    -2.3973803456     1.5125598434
| 11>  C        0.9029880929    -0.4140637837     1.2310821409
| 12>  C        2.0730312407     0.4450128508     1.4101627252
| 13>  N        3.0330906132     1.0792246709     1.5316278041
| 14>  H        0.5151836532     2.1429706810    -0.0409259508
| 15>  H       -1.0064338266     1.7282095894    -0.8448923572
| 16>  H       -0.9335683680     1.8047745641     0.9202031372
| 17>  H       -0.9207422317    -0.5576574638     0.1616329730
| 18>  H        0.0543478895    -0.7439498092    -1.9960799721
| 19>  H        1.3783763911     0.3396576104    -1.6036532126
| 20>  H        1.4386275859    -2.5810417140    -1.2881539250
| 21>  H        2.7011226174    -1.4287063798    -0.8853909301
| 22>  H        0.5155937033    -2.5018766936     0.9213401786
| 23>  H        3.1898671722    -1.8276522370     1.4268250997
| 24>  H        0.3641280699    -0.4594070914     2.1819960589
| 25> *
| 26>
| 27>                          ****END OF INPUT****

CARTESIAN COORDINATES (ANGSTROEM)
---------------------------------
  C     -0.376888    1.511624    0.024122
  C     -0.001775    0.032753    0.054213
  C      0.755647   -0.467240   -1.204645
  C      1.639056   -1.655683   -0.743622
  C      1.368281   -1.831828    0.768918
  O      2.415139   -2.397380    1.512560
  C      0.902988   -0.414064    1.231082
  C      2.073031    0.445013    1.410163
  N      3.033091    1.079225    1.531628
  H      0.515184    2.142971   -0.040926
  H     -1.006434    1.728210   -0.844892
  H     -0.933568    1.804775    0.920203
  H     -0.920742   -0.557657    0.161633
  H      0.054348   -0.743950   -1.996080
  H      1.378376    0.339658   -1.603653
  H      1.438628   -2.581042   -1.288154
  H      2.701123   -1.428706   -0.885391
  H      0.515594   -2.501877    0.921340
  H      3.189867   -1.827652    1.426825
  H      0.364128   -0.459407    2.181996

 Total Charge           Charge          ....    0
 Multiplicity           Mult            ....    1
 Number of Electrons    NEL             ....   68
 Basis Dimension        Dim             ....  345

ORBITAL ENERGIES
----------------

  NO   OCC          E(Eh)            E(eV)
   0   2.0000     -20.569485      -559.7241
   1   2.0000     -15.574385      -423.8006
   2   2.0000     -11.304431      -307.6092
   3   2.0000     -11.279880      -306.9411
   4   2.0000     -11.276626      -306.8526
   5   2.0000     -11.258079      -306.3479
   6   2.0000     -11.237781      -305.7956
   7   2.0000     -11.235775      -305.7410
   8   2.0000     -11.229926      -305.5818
   9   2.0000      -1.381177       -37.5837
  10   2.0000      -1.225730       -33.3538
  11   2.0000      -1.150976       -31.3197
  12   2.0000      -1.023470       -27.8500
  13   2.0000      -1.008821       -27.4514
  14   2.0000      -0.913274       -24.8515
  15   2.0000      -0.847857       -23.0714
  16   2.0000      -0.796862       -21.6837
  17   2.0000      -0.712198       -19.3799
  18   2.0000      -0.697443       -18.9784
  19   2.0000      -0.651681       -17.7331
  20   2.0000      -0.640379       -17.4256
  21   2.0000      -0.601667       -16.3722
  22   2.0000      -0.588379       -16.0106
  23   2.0000      -0.576441       -15.6857
  24   2.0000      -0.570808       -15.5325
  25   2.0000      -0.556534       -15.1441
  26   2.0000      -0.525830       -14.3086
  27   2.0000      -0.516585       -14.0570
  28   2.0000      -0.498401       -13.5622
  29   2.0000      -0.487166       -13.2565
  30   2.0000      -0.477153       -12.9840
  31   2.0000      -0.465920       -12.6783
  32   2.0000      -0.454093       -12.3565
  33   2.0000      -0.430224       -11.7070
  34   0.0000       0.113428         3.0865
  35   0.0000       0.141305         3.8451
  36   0.0000       0.148403         4.0383
  37   0.0000       0.158424         4.3109
  38   0.0000       0.178979         4.8703

MULLIKEN ATOMIC CHARGES
-----------------------
   0 C :   -0.408963
   1 C :   -0.114447
   2 C :   -0.266156
   3 C :   -0.227468
   4 C :    0.002750
   5 O :   -0.450138
   6 C :    0.190096
   7 C :   -0.328498
   8 N :   -0.038693
   9 H :    0.149658
  10 H :    0.139357
  11 H :    0.137401
  12 H :    0.108369
  13 H :    0.128761
  14 H :    0.132987
  15 H :    0.132391
  16 H :    0.126531
  17 H :    0.111948
  18 H :    0.329629
  19 H :    0.144485
Sum of atomic charges:   -0.0000000

LOEWDIN ATOMIC CHARGES
----------------------
   0 C :   -0.287578
   1 C :   -0.239341
   2 C :   -0.222589
   3 C :   -0.232566
   4 C :   -0.312972
   5 O :    0.004836
   6 C :   -0.202708
   7 C :   -0.178339
   8 N :    0.059740
   9 H :    0.131361
  10 H :    0.128182
  11 H :    0.126913
  12 H :    0.158609
  13 H :    0.136433
  14 H :    0.143503
  15 H :    0.137600
  16 H :    0.141590
  17 H :    0.151117
  18 H :    0.181695
  19 H :    0.174515

  Mayer bond orders larger than 0.1
B(  0-C ,  1-C ) :   0.9130 B(  0-C ,  9-H ) :   0.9263 B(  0-C , 10-H ) :   0.9382
B(  0-C , 11-H ) :   0.9373 B(  1-C ,  2-C ) :   0.9312 B(  1-C ,  6-C ) :   0.8524
B(  1-C , 12-H ) :   0.9252 B(  2-C ,  3-C ) :   0.9068 B(  2-C , 13-H ) :   0.9248
B(  2-C , 14-H ) :   0.9240 B(  3-C ,  4-C ) :   0.9470 B(  3-C , 15-H ) :   0.9289
B(  3-C , 16-H ) :   0.9181 B(  4-C ,  5-O ) :   1.0025 B(  4-C ,  6-C ) :   0.8317
B(  4-C , 17-H ) :   0.9247 B(  5-O , 18-H ) :   0.8262 B(  6-C ,  7-C ) :   0.8854
B(  6-C , 19-H ) :   0.8955 B(  7-C ,  8-N ) :   2.8548

MP2 TOTAL ENERGY:     -402.501245890 Eh
FINAL SINGLE POINT ENERGY      -402.501245889749

DIPOLE MOMENT
-------------
                                X             Y             Z
Electronic contribution:      5.51006      -1.05918       5.46462
Nuclear contribution   :     -6.72217       0.75912      -6.16395
                        -----------------------------------------
Total Dipole Moment    :     -1.21210      -0.30006      -0.69932
                        -----------------------------------------
Magnitude (a.u.)       :      1.43118
Magnitude (Debye)      :      3.63778

                             ****ORCA TERMINATED NORMALLY****
TOTAL RUN TIME: 0 days 0 hours 20 minutes 34 seconds 743 msec
