                         Program Version 3.0.3 - RELEASE   -
|  1> ! RI-MP2 RIJK def2-TZVP def2-TZVP/C def2-TZVP/JK TIGHTSCF
|  2> % maxcore 2000
|  3> % mp2 density relaxed end
|  4> *xyz 0 1
|  5>  N       -0.2878527569     1.1712195555    -0.0377741383
|  6>  C       -0.4679790904    -0.0445563059    -0.3145166903
|  7>  O       -0.9714927353    -0.8758877931     0.6325723796
|  8>  C       -0.9963377570    -2.2342030122     0.3090443669
|  9>  C       -2.1236013238    -3.0174477208     0.8806061214
| 10>  C       -2.0786796570    -2.7728828510    -0.6266407094
| 11>  C       -3.0130017461    -1.8828237165    -1.2451869608
| 12>  C       -3.7850335602    -1.1340792288    -1.7836123203
| 13>  H        0.0781057734     1.6607207636    -0.8518185755
| 14>  H       -0.2655535058    -0.5454751196    -1.2687331162
| 15>  H       -0.0138595666    -2.6959856763     0.2420551052
| 16>  H       -1.9358131458    -4.0220742713     1.2400883349
| 17>  H       -2.8616494487    -2.4503477774     1.4345290397
| 18>  H       -1.7756867043    -3.6197410702    -1.2361547516
| 19>  H       -4.4732135655    -0.4717400860    -2.2473924654
| 20> *
| 21>
| 22>                          ****END OF INPUT****

CARTESIAN COORDINATES (ANGSTROEM)
---------------------------------
  N     -0.287853    1.171220   -0.037774
  C     -0.467979   -0.044556   -0.314517
  O     -0.971493   -0.875888    0.632572
  C     -0.996338   -2.234203    0.309044
  C     -2.123601   -3.017448    0.880606
  C     -2.078680   -2.772883   -0.626641
  C     -3.013002   -1.882824   -1.245187
  C     -3.785034   -1.134079   -1.783612
  H      0.078106    1.660721   -0.851819
  H     -0.265554   -0.545475   -1.268733
  H     -0.013860   -2.695986    0.242055
  H     -1.935813   -4.022074    1.240088
  H     -2.861649   -2.450348    1.434529
  H     -1.775687   -3.619741   -1.236155
  H     -4.473214   -0.471740   -2.247392

 Total Charge           Charge          ....    0
 Multiplicity           Mult            ....    1
 Number of Electrons    NEL             ....   58
 Basis Dimension        Dim             ....  290

ORBITAL ENERGIES
----------------

  NO   OCC          E(Eh)            E(eV)
   0   2.0000     -20.600056      -560.5560
   1   2.0000     -15.540643      -422.8824
   2   2.0000     -11.338057      -308.5242
   3   2.0000     -11.316416      -307.9353
   4   2.0000     -11.275134      -306.8120
   5   2.0000     -11.253718      -306.2292
   6   2.0000     -11.243196      -305.9429
   7   2.0000     -11.230039      -305.5849
   8   2.0000      -1.438692       -39.1488
   9   2.0000      -1.208083       -32.8736
  10   2.0000      -1.161715       -31.6119
  11   2.0000      -1.033976       -28.1359
  12   2.0000      -0.899779       -24.4842
  13   2.0000      -0.863121       -23.4867
  14   2.0000      -0.820314       -22.3219
  15   2.0000      -0.749707       -20.4006
  16   2.0000      -0.717253       -19.5174
  17   2.0000      -0.704251       -19.1636
  18   2.0000      -0.668641       -18.1947
  19   2.0000      -0.635849       -17.3023
  20   2.0000      -0.592711       -16.1285
  21   2.0000      -0.571038       -15.5387
  22   2.0000      -0.556482       -15.1426
  23   2.0000      -0.491990       -13.3877
  24   2.0000      -0.468697       -12.7539
  25   2.0000      -0.437195       -11.8967
  26   2.0000      -0.413531       -11.2527
  27   2.0000      -0.391370       -10.6497
  28   2.0000      -0.366576        -9.9750
  29   0.0000       0.129691         3.5291
  30   0.0000       0.149891         4.0787
  31   0.0000       0.158818         4.3216
  32   0.0000       0.159880         4.3506
  33   0.0000       0.166734         4.5371

MULLIKEN ATOMIC CHARGES
-----------------------
   0 N :   -0.333347
   1 C :    0.070203
   2 O :   -0.208726
   3 C :    0.021352
   4 C :   -0.230098
   5 C :   -0.283158
   6 C :   -0.014268
   7 C :   -0.116937
   8 H :    0.226679
   9 H :    0.095817
  10 H :    0.129478
  11 H :    0.145979
  12 H :    0.159319
  13 H :    0.144740
  14 H :    0.192967
Sum of atomic charges:    0.0000000

LOEWDIN ATOMIC CHARGES
----------------------
   0 N :   -0.073891
   1 C :   -0.380264
   2 O :    0.278387
   3 C :   -0.273402
   4 C :   -0.172245
   5 C :   -0.197116
   6 C :   -0.100941
   7 C :   -0.086569
   8 H :    0.169431
   9 H :    0.113878
  10 H :    0.139562
  11 H :    0.138014
  12 H :    0.151772
  13 H :    0.165145
  14 H :    0.128237

  Mayer bond orders larger than 0.1
B(  0-N ,  1-C ) :   1.9587 B(  0-N ,  8-H ) :   0.8499 B(  1-C ,  2-O ) :   1.0024
B(  1-C ,  9-H ) :   0.9294 B(  2-O ,  3-C ) :   0.9830 B(  3-C ,  4-C ) :   0.8920
B(  3-C ,  5-C ) :   0.8567 B(  3-C , 10-H ) :   0.9425 B(  4-C ,  5-C ) :   0.8457
B(  4-C , 11-H ) :   0.9227 B(  4-C , 12-H ) :   0.9243 B(  5-C ,  6-C ) :   1.1853
B(  5-C ,  7-C ) :  -0.1231 B(  5-C , 13-H ) :   0.9320 B(  6-C ,  7-C ) :   2.5508
B(  7-C , 14-H ) :   0.9011

MP2 TOTAL ENERGY:     -361.968556333 Eh
FINAL SINGLE POINT ENERGY      -361.968556333278

DIPOLE MOMENT
-------------
                                X             Y             Z
Electronic contribution:     -0.10872       1.73812       0.09947
Nuclear contribution   :      0.33522      -2.76788      -0.91175
                        -----------------------------------------
Total Dipole Moment    :      0.22650      -1.02976      -0.81228
                        -----------------------------------------
Magnitude (a.u.)       :      1.33098
Magnitude (Debye)      :      3.38308

                             ****ORCA TERMINATED NORMALLY****
TOTAL RUN TIME: 0 days 0 hours 10 minutes 30 seconds 524 msec
