                         Program Version 3.0.3 - RELEASE   -
|  1> ! RI-MP2 RIJK def2-TZVP def2-TZVP/C def2-TZVP/JK TIGHTSCF
|  2> % maxcore 2000
|  3> % mp2 density relaxed end
|  4> *xyz 0 1
|  5>  C       -0.0565286001     1.4573116063    -0.0323937038
|  6>  C        1.3497932217     0.8478543060    -0.0387759309
|  7>  C        2.2562100481     0.4557121810    -1.1559169194
|  8>  C        2.1511459296    -0.8008378440    -1.6021449398
|  9>  C        0.9400981759    -1.6202729657    -1.1655029026
| 10>  C        0.9645378239    -2.1725746811     0.3077023108
| 11>  C        0.1152989462    -1.1188191053     1.1060085102
| 12>  C        0.1174577149    -0.0201204755     0.0689676986
| 13>  O       -0.1618322144    -0.6998423720    -1.1392247667
| 14>  H       -0.3219232688     2.0360872524     0.8459166862
| 15>  H       -0.4936660501     1.8062722145    -0.9613444855
| 16>  H        1.8712271501     1.0101408351     0.9037819378
| 17>  H        3.0266187709     1.1340943017    -1.5120104266
| 18>  H        2.8283054098    -1.2133232073    -2.3437816568
| 19>  H        0.7155320063    -2.4013644891    -1.8952113346
| 20>  H        0.5189919410    -3.1688851903     0.3562699593
| 21>  H        1.9845244800    -2.2406716365     0.6920765661
| 22>  H       -0.8918015582    -1.4959118538     1.3083643002
| 23>  H        0.5821487432    -0.8317485465     2.0509825476
| 24> *
| 25>
| 26>                          ****END OF INPUT****

CARTESIAN COORDINATES (ANGSTROEM)
---------------------------------
  C     -0.056529    1.457312   -0.032394
  C      1.349793    0.847854   -0.038776
  C      2.256210    0.455712   -1.155917
  C      2.151146   -0.800838   -1.602145
  C      0.940098   -1.620273   -1.165503
  C      0.964538   -2.172575    0.307702
  C      0.115299   -1.118819    1.106009
  C      0.117458   -0.020120    0.068968
  O     -0.161832   -0.699842   -1.139225
  H     -0.321923    2.036087    0.845917
  H     -0.493666    1.806272   -0.961344
  H      1.871227    1.010141    0.903782
  H      3.026619    1.134094   -1.512010
  H      2.828305   -1.213323   -2.343782
  H      0.715532   -2.401364   -1.895211
  H      0.518992   -3.168885    0.356270
  H      1.984524   -2.240672    0.692077
  H     -0.891802   -1.495912    1.308364
  H      0.582149   -0.831749    2.050983

 Total Charge           Charge          ....    0
 Multiplicity           Mult            ....    1
 Number of Electrons    NEL             ....   66
 Basis Dimension        Dim             ....  339

ORBITAL ENERGIES
----------------

  NO   OCC          E(Eh)            E(eV)
   0   2.0000     -20.548644      -559.1570
   1   2.0000     -11.282563      -307.0141
   2   2.0000     -11.278038      -306.8910
   3   2.0000     -11.236745      -305.7674
   4   2.0000     -11.230711      -305.6032
   5   2.0000     -11.229016      -305.5571
   6   2.0000     -11.228487      -305.5427
   7   2.0000     -11.227723      -305.5219
   8   2.0000     -11.224935      -305.4460
   9   2.0000      -1.389839       -37.8195
  10   2.0000      -1.136818       -30.9344
  11   2.0000      -1.065437       -28.9920
  12   2.0000      -1.039507       -28.2864
  13   2.0000      -0.924709       -25.1626
  14   2.0000      -0.853056       -23.2128
  15   2.0000      -0.815068       -22.1791
  16   2.0000      -0.777457       -21.1557
  17   2.0000      -0.703316       -19.1382
  18   2.0000      -0.680705       -18.5229
  19   2.0000      -0.664246       -18.0751
  20   2.0000      -0.636356       -17.3161
  21   2.0000      -0.612905       -16.6780
  22   2.0000      -0.591164       -16.0864
  23   2.0000      -0.559171       -15.2158
  24   2.0000      -0.529409       -14.4060
  25   2.0000      -0.515206       -14.0195
  26   2.0000      -0.504627       -13.7316
  27   2.0000      -0.492553       -13.4030
  28   2.0000      -0.474085       -12.9005
  29   2.0000      -0.448417       -12.2020
  30   2.0000      -0.433481       -11.7956
  31   2.0000      -0.384643       -10.4667
  32   2.0000      -0.334032        -9.0895
  33   0.0000       0.134928         3.6716
  34   0.0000       0.150178         4.0865
  35   0.0000       0.160517         4.3679
  36   0.0000       0.171625         4.6701
  37   0.0000       0.177519         4.8305

MULLIKEN ATOMIC CHARGES
-----------------------
   0 C :   -0.274372
   1 C :   -0.098380
   2 C :   -0.206037
   3 C :   -0.246712
   4 C :    0.162753
   5 C :   -0.232363
   6 C :   -0.283090
   7 C :    0.250545
   8 O :   -0.314349
   9 H :    0.131474
  10 H :    0.147153
  11 H :    0.118569
  12 H :    0.125380
  13 H :    0.122530
  14 H :    0.125581
  15 H :    0.125480
  16 H :    0.118516
  17 H :    0.113014
  18 H :    0.114307
Sum of atomic charges:   -0.0000000

LOEWDIN ATOMIC CHARGES
----------------------
   0 C :   -0.169759
   1 C :   -0.170880
   2 C :   -0.145942
   3 C :   -0.140664
   4 C :   -0.267576
   5 C :   -0.210242
   6 C :   -0.214276
   7 C :   -0.316402
   8 O :    0.231588
   9 H :    0.137601
  10 H :    0.145180
  11 H :    0.157939
  12 H :    0.140328
  13 H :    0.138467
  14 H :    0.142089
  15 H :    0.132382
  16 H :    0.136911
  17 H :    0.136416
  18 H :    0.136840

  Mayer bond orders larger than 0.1
B(  0-C ,  1-C ) :   0.9008 B(  0-C ,  7-C ) :   0.8982 B(  0-C ,  9-H ) :   0.9175
B(  0-C , 10-H ) :   0.9047 B(  1-C ,  2-C ) :   0.9299 B(  1-C ,  7-C ) :   0.8408
B(  1-C , 11-H ) :   0.9196 B(  2-C ,  3-C ) :   1.7889 B(  2-C , 12-H ) :   0.9304
B(  3-C ,  4-C ) :   0.9402 B(  3-C , 13-H ) :   0.9230 B(  4-C ,  5-C ) :   0.9135
B(  4-C ,  8-O ) :   0.9542 B(  4-C , 14-H ) :   0.9132 B(  5-C ,  6-C ) :   0.9724
B(  5-C , 15-H ) :   0.9334 B(  5-C , 16-H ) :   0.9185 B(  6-C ,  7-C ) :   0.9282
B(  6-C , 17-H ) :   0.9132 B(  6-C , 18-H ) :   0.9195 B(  7-C ,  8-O ) :   0.9382

MP2 TOTAL ENERGY:     -385.191564815 Eh
FINAL SINGLE POINT ENERGY      -385.191564814570

DIPOLE MOMENT
-------------
                                X             Y             Z
Electronic contribution:     -1.00129       0.88793      -2.78910
Nuclear contribution   :      1.40723      -1.02137       3.22815
                        -----------------------------------------
Total Dipole Moment    :      0.40594      -0.13345       0.43905
                        -----------------------------------------
Magnitude (a.u.)       :      0.61267
Magnitude (Debye)      :      1.55728

                             ****ORCA TERMINATED NORMALLY****
TOTAL RUN TIME: 0 days 0 hours 20 minutes 22 seconds 150 msec
