                         Program Version 3.0.3 - RELEASE   -
|  1> ! RI-MP2 RIJK def2-TZVP def2-TZVP/C def2-TZVP/JK TIGHTSCF
|  2> % maxcore 2000
|  3> % mp2 density relaxed end
|  4> *xyz 0 1
|  5>  C       -0.0430095723     1.4209033741     0.0426139492
|  6>  N       -0.0235698719    -0.0290497036     0.0180793790
|  7>  N        0.0309486583    -0.7106636590    -1.1287601834
|  8>  C        0.0768897097    -1.9794963571    -0.7346362403
|  9>  C        0.0498556719    -2.0184675395     0.6716393356
| 10>  N       -0.0124069006    -0.7548387718     1.1202956773
| 11>  C        0.0764509478    -3.2037180447     1.5560222931
| 12>  C        0.0293588071    -2.9590478994     3.0491346315
| 13>  O        0.1344991998    -4.3161606588     1.0727040037
| 14>  H        0.9473162750     1.8179529008    -0.1970167907
| 15>  H       -0.7624255915     1.7802691959    -0.6943251042
| 16>  H       -0.3341203799     1.7324877332     1.0444440987
| 17>  H        0.1208809709    -2.7936351278    -1.4387339771
| 18>  H       -0.8795369199    -2.4101121187     3.3156496197
| 19>  H        0.0581121358    -3.9155645305     3.5715414927
| 20>  H        0.8726927398    -2.3335107230     3.3587679552
| 21> *
| 22>
| 23>                          ****END OF INPUT****

CARTESIAN COORDINATES (ANGSTROEM)
---------------------------------
  C     -0.043010    1.420903    0.042614
  N     -0.023570   -0.029050    0.018079
  N      0.030949   -0.710664   -1.128760
  C      0.076890   -1.979496   -0.734636
  C      0.049856   -2.018468    0.671639
  N     -0.012407   -0.754839    1.120296
  C      0.076451   -3.203718    1.556022
  C      0.029359   -2.959048    3.049135
  O      0.134499   -4.316161    1.072704
  H      0.947316    1.817953   -0.197017
  H     -0.762426    1.780269   -0.694325
  H     -0.334120    1.732488    1.044444
  H      0.120881   -2.793635   -1.438734
  H     -0.879537   -2.410112    3.315650
  H      0.058112   -3.915565    3.571541
  H      0.872693   -2.333511    3.358768

 Total Charge           Charge          ....    0
 Multiplicity           Mult            ....    1
 Number of Electrons    NEL             ....   66
 Basis Dimension        Dim             ....  321

ORBITAL ENERGIES
----------------

  NO   OCC          E(Eh)            E(eV)
   0   2.0000     -20.548312      -559.1480
   1   2.0000     -15.698902      -427.1888
   2   2.0000     -15.634627      -425.4398
   3   2.0000     -15.621322      -425.0778
   4   2.0000     -11.341808      -308.6263
   5   2.0000     -11.290912      -307.2413
   6   2.0000     -11.275395      -306.8191
   7   2.0000     -11.273013      -306.7543
   8   2.0000     -11.234036      -305.6937
   9   2.0000      -1.464718       -39.8570
  10   2.0000      -1.391269       -37.8584
  11   2.0000      -1.207556       -32.8593
  12   2.0000      -1.154565       -31.4173
  13   2.0000      -1.022666       -27.8282
  14   2.0000      -0.976612       -26.5750
  15   2.0000      -0.878665       -23.9097
  16   2.0000      -0.826284       -22.4843
  17   2.0000      -0.769327       -20.9345
  18   2.0000      -0.712320       -19.3832
  19   2.0000      -0.694245       -18.8914
  20   2.0000      -0.660617       -17.9763
  21   2.0000      -0.625926       -17.0323
  22   2.0000      -0.616173       -16.7669
  23   2.0000      -0.606808       -16.5121
  24   2.0000      -0.585575       -15.9343
  25   2.0000      -0.576710       -15.6931
  26   2.0000      -0.559381       -15.2215
  27   2.0000      -0.516580       -14.0569
  28   2.0000      -0.508018       -13.8239
  29   2.0000      -0.485251       -13.2043
  30   2.0000      -0.428621       -11.6634
  31   2.0000      -0.412536       -11.2257
  32   2.0000      -0.372531       -10.1371
  33   0.0000       0.092734         2.5234
  34   0.0000       0.135008         3.6737
  35   0.0000       0.138807         3.7771
  36   0.0000       0.151617         4.1257
  37   0.0000       0.184282         5.0146

MULLIKEN ATOMIC CHARGES
-----------------------
   0 C :   -0.319205
   1 N :    0.234966
   2 N :   -0.215286
   3 C :   -0.094516
   4 C :    0.067099
   5 N :   -0.266380
   6 C :    0.158811
   7 C :   -0.375652
   8 O :   -0.294024
   9 H :    0.157197
  10 H :    0.166522
  11 H :    0.172121
  12 H :    0.162615
  13 H :    0.146858
  14 H :    0.151754
  15 H :    0.147120
Sum of atomic charges:    0.0000000

LOEWDIN ATOMIC CHARGES
----------------------
   0 C :   -0.267363
   1 N :    0.114536
   2 N :    0.056137
   3 C :   -0.216739
   4 C :   -0.264319
   5 N :    0.075819
   6 C :   -0.329730
   7 C :   -0.271251
   8 O :    0.150553
   9 H :    0.128301
  10 H :    0.131113
  11 H :    0.133040
  12 H :    0.146498
  13 H :    0.140162
  14 H :    0.133086
  15 H :    0.140159

  Mayer bond orders larger than 0.1
B(  0-C ,  1-N ) :   0.8580 B(  0-C ,  9-H ) :   0.9263 B(  0-C , 10-H ) :   0.9272
B(  0-C , 11-H ) :   0.9263 B(  1-N ,  2-N ) :   1.0926 B(  1-N ,  5-N ) :   1.1091
B(  2-N ,  3-C ) :   1.4458 B(  3-C ,  4-C ) :   1.3367 B(  3-C , 12-H ) :   0.9179
B(  4-C ,  5-N ) :   1.3880 B(  4-C ,  6-C ) :   0.8977 B(  6-C ,  7-C ) :   0.9601
B(  6-C ,  8-O ) :   1.9969 B(  7-C , 13-H ) :   0.9088 B(  7-C , 14-H ) :   0.9356
B(  7-C , 15-H ) :   0.9088

MP2 TOTAL ENERGY:     -433.374306110 Eh
FINAL SINGLE POINT ENERGY      -433.374306109986

DIPOLE MOMENT
-------------
                                X             Y             Z
Electronic contribution:      0.14900      -3.36293      -3.82050
Nuclear contribution   :     -0.20757       4.79071       4.12999
                        -----------------------------------------
Total Dipole Moment    :     -0.05857       1.42778       0.30949
                        -----------------------------------------
Magnitude (a.u.)       :      1.46211
Magnitude (Debye)      :      3.71639

                             ****ORCA TERMINATED NORMALLY****
TOTAL RUN TIME: 0 days 0 hours 15 minutes 47 seconds 751 msec
