                         Program Version 3.0.3 - RELEASE   -
|  1> ! RI-MP2 RIJK def2-TZVP def2-TZVP/C def2-TZVP/JK TIGHTSCF
|  2> % maxcore 2000
|  3> % mp2 density relaxed end
|  4> *xyz 0 1
|  5>  O        0.5290059870     0.5478494756    -0.9826970049
|  6>  C        0.0445589942    -0.3095696923     0.0118891826
|  7>  C        0.4107194790     0.1150369669     1.4539102419
|  8>  N       -0.6503739434    -0.4869958683     2.2578079417
|  9>  C       -1.7982200212    -0.9269358168     1.4529187880
| 10>  C       -1.5010940215    -0.3690314367     0.0620412408
| 11>  O       -2.0245239904     0.9443806256    -0.1504154471
| 12>  C       -0.5874635751    -0.7424068332     3.5886137809
| 13>  O       -1.4685940703    -1.2875443051     4.2223531561
| 14>  H       -0.1422040953     1.2404813227    -1.0719396884
| 15>  H        0.4421451449    -1.3117848015    -0.1844486858
| 16>  H        1.3985275584    -0.2380037250     1.7599890863
| 17>  H        0.4118714046     1.2127437064     1.5172784964
| 18>  H       -1.8659163961    -2.0212018722     1.4456825749
| 19>  H       -2.7405720050    -0.5499401839     1.8623449822
| 20>  H       -1.9176599374    -0.9842305097    -0.7378006168
| 21>  H       -2.0242256939     1.4190612543     0.6880873458
| 22>  H        0.3628971413    -0.3949405767     4.0405764653
| 23> *
| 24>
| 25>                          ****END OF INPUT****

CARTESIAN COORDINATES (ANGSTROEM)
---------------------------------
  O      0.529006    0.547849   -0.982697
  C      0.044559   -0.309570    0.011889
  C      0.410719    0.115037    1.453910
  N     -0.650374   -0.486996    2.257808
  C     -1.798220   -0.926936    1.452919
  C     -1.501094   -0.369031    0.062041
  O     -2.024524    0.944381   -0.150415
  C     -0.587464   -0.742407    3.588614
  O     -1.468594   -1.287544    4.222353
  H     -0.142204    1.240481   -1.071940
  H      0.442145   -1.311785   -0.184449
  H      1.398528   -0.238004    1.759989
  H      0.411871    1.212744    1.517278
  H     -1.865916   -2.021202    1.445683
  H     -2.740572   -0.549940    1.862345
  H     -1.917660   -0.984231   -0.737801
  H     -2.024226    1.419061    0.688087
  H      0.362897   -0.394941    4.040576

 Total Charge           Charge          ....    0
 Multiplicity           Mult            ....    1
 Number of Electrons    NEL             ....   70
 Basis Dimension        Dim             ....  333

ORBITAL ENERGIES
----------------

  NO   OCC          E(Eh)            E(eV)
   0   2.0000     -20.588474      -560.2409
   1   2.0000     -20.567765      -559.6773
   2   2.0000     -20.529062      -558.6242
   3   2.0000     -15.599775      -424.4915
   4   2.0000     -11.353370      -308.9409
   5   2.0000     -11.306710      -307.6712
   6   2.0000     -11.302023      -307.5437
   7   2.0000     -11.284930      -307.0786
   8   2.0000     -11.282323      -307.0076
   9   2.0000      -1.406627       -38.2763
  10   2.0000      -1.388991       -37.7964
  11   2.0000      -1.370127       -37.2830
  12   2.0000      -1.269762       -34.5520
  13   2.0000      -1.059860       -28.8403
  14   2.0000      -1.014018       -27.5928
  15   2.0000      -0.904541       -24.6138
  16   2.0000      -0.836772       -22.7697
  17   2.0000      -0.794235       -21.6122
  18   2.0000      -0.741059       -20.1653
  19   2.0000      -0.711170       -19.3519
  20   2.0000      -0.694570       -18.9002
  21   2.0000      -0.674996       -18.3676
  22   2.0000      -0.647738       -17.6259
  23   2.0000      -0.629205       -17.1215
  24   2.0000      -0.620289       -16.8789
  25   2.0000      -0.597623       -16.2622
  26   2.0000      -0.571843       -15.5606
  27   2.0000      -0.563983       -15.3467
  28   2.0000      -0.538724       -14.6594
  29   2.0000      -0.526418       -14.3246
  30   2.0000      -0.522066       -14.2061
  31   2.0000      -0.485488       -13.2108
  32   2.0000      -0.442072       -12.0294
  33   2.0000      -0.435924       -11.8621
  34   2.0000      -0.387800       -10.5526
  35   0.0000       0.115658         3.1472
  36   0.0000       0.130893         3.5618
  37   0.0000       0.153038         4.1644
  38   0.0000       0.162712         4.4276
  39   0.0000       0.172384         4.6908

MULLIKEN ATOMIC CHARGES
-----------------------
   0 O :   -0.467800
   1 C :    0.081127
   2 C :   -0.209573
   3 N :   -0.076911
   4 C :   -0.233237
   5 C :    0.059737
   6 O :   -0.483503
   7 C :    0.127793
   8 O :   -0.358701
   9 H :    0.335495
  10 H :    0.112494
  11 H :    0.141343
  12 H :    0.116709
  13 H :    0.139895
  14 H :    0.160831
  15 H :    0.135159
  16 H :    0.331489
  17 H :    0.087652
Sum of atomic charges:   -0.0000000

LOEWDIN ATOMIC CHARGES
----------------------
   0 O :   -0.003748
   1 C :   -0.335269
   2 C :   -0.237661
   3 N :    0.163094
   4 C :   -0.224300
   5 C :   -0.313278
   6 O :   -0.018159
   7 C :   -0.418589
   8 O :    0.060308
   9 H :    0.181510
  10 H :    0.149132
  11 H :    0.137387
  12 H :    0.129819
  13 H :    0.144030
  14 H :    0.143551
  15 H :    0.147627
  16 H :    0.180107
  17 H :    0.114438

  Mayer bond orders larger than 0.1
B(  0-O ,  1-C ) :   1.0195 B(  0-O ,  9-H ) :   0.8103 B(  1-C ,  2-C ) :   0.8681
B(  1-C ,  5-C ) :   0.9225 B(  1-C , 10-H ) :   0.9257 B(  2-C ,  3-N ) :   0.9012
B(  2-C , 11-H ) :   0.9134 B(  2-C , 12-H ) :   0.9179 B(  3-N ,  4-C ) :   0.8664
B(  3-N ,  7-C ) :   1.1381 B(  4-C ,  5-C ) :   0.9405 B(  4-C , 13-H ) :   0.9243
B(  4-C , 14-H ) :   0.9273 B(  5-C ,  6-O ) :   0.8992 B(  5-C , 15-H ) :   0.9348
B(  6-O , 16-H ) :   0.8343 B(  7-C ,  8-O ) :   1.8960 B(  7-C , 17-H ) :   0.9336

MP2 TOTAL ENERGY:     -475.508037007 Eh
FINAL SINGLE POINT ENERGY      -475.508037007294

DIPOLE MOMENT
-------------
                                X             Y             Z
Electronic contribution:     -0.69880      -0.16384       1.72033
Nuclear contribution   :      0.98091       0.54628      -2.16716
                        -----------------------------------------
Total Dipole Moment    :      0.28212       0.38244      -0.44683
                        -----------------------------------------
Magnitude (a.u.)       :      0.65231
Magnitude (Debye)      :      1.65804

                             ****ORCA TERMINATED NORMALLY****
TOTAL RUN TIME: 0 days 0 hours 16 minutes 12 seconds 728 msec
