                         Program Version 3.0.3 - RELEASE   -
|  1> ! RI-MP2 RIJK def2-TZVP def2-TZVP/C def2-TZVP/JK TIGHTSCF
|  2> % maxcore 2000
|  3> % mp2 density relaxed end
|  4> *xyz 0 1
|  5>  C       -0.0978123637     1.4816341399    -0.2063755432
|  6>  C       -0.0100710792     0.0061518119     0.1977861085
|  7>  C       -1.3460642270    -0.7047024676     0.0781268783
|  8>  O       -1.8964943655    -0.7009907855    -1.2768500989
|  9>  C       -2.1327896669    -2.1187160730    -1.2002393957
| 10>  C       -3.4154384757    -2.6319847774    -1.7762410658
| 11>  C       -3.4879682678    -2.4315414426    -3.2965925128
| 12>  C       -0.8240421734    -2.8407677092    -1.1011633199
| 13>  C       -1.4461217714    -2.2274739677     0.1433532772
| 14>  H        0.8768974780     1.9722111263    -0.1278691171
| 15>  H       -0.4459199753     1.5732351342    -1.2390352394
| 16>  H       -0.7998740996     2.0279707250     0.4333760529
| 17>  H        0.7344187291    -0.5065826595    -0.4209603423
| 18>  H        0.3269256698    -0.0842271935     1.2390649882
| 19>  H       -2.0790588938    -0.2369091894     0.7512517584
| 20>  H       -3.5089457652    -3.6959290162    -1.5283605008
| 21>  H       -4.2547760488    -2.1155485828    -1.2944819997
| 22>  H       -4.4463000087    -2.7801068229    -3.6926818902
| 23>  H       -3.3790791055    -1.3727561016    -3.5483608543
| 24>  H       -2.6890365489    -2.9815580805    -3.8040833862
| 25>  H       -0.8836651624    -3.9247082267    -1.1329638451
| 26>  H        0.0681358149    -2.4188124836    -1.5542106058
| 27>  H       -1.7014695330    -2.8082715476     1.0199765137
| 28> *
| 29>
| 30>                          ****END OF INPUT****

CARTESIAN COORDINATES (ANGSTROEM)
---------------------------------
  C     -0.097812    1.481634   -0.206376
  C     -0.010071    0.006152    0.197786
  C     -1.346064   -0.704702    0.078127
  O     -1.896494   -0.700991   -1.276850
  C     -2.132790   -2.118716   -1.200239
  C     -3.415438   -2.631985   -1.776241
  C     -3.487968   -2.431541   -3.296593
  C     -0.824042   -2.840768   -1.101163
  C     -1.446122   -2.227474    0.143353
  H      0.876897    1.972211   -0.127869
  H     -0.445920    1.573235   -1.239035
  H     -0.799874    2.027971    0.433376
  H      0.734419   -0.506583   -0.420960
  H      0.326926   -0.084227    1.239065
  H     -2.079059   -0.236909    0.751252
  H     -3.508946   -3.695929   -1.528361
  H     -4.254776   -2.115549   -1.294482
  H     -4.446300   -2.780107   -3.692682
  H     -3.379079   -1.372756   -3.548361
  H     -2.689037   -2.981558   -3.804083
  H     -0.883665   -3.924708   -1.132964
  H      0.068136   -2.418812   -1.554211
  H     -1.701470   -2.808272    1.019977

 Total Charge           Charge          ....    0
 Multiplicity           Mult            ....    1
 Number of Electrons    NEL             ....   70
 Basis Dimension        Dim             ....  363

ORBITAL ENERGIES
----------------

  NO   OCC          E(Eh)            E(eV)
   0   2.0000     -20.543830      -559.0260
   1   2.0000     -11.285042      -307.0816
   2   2.0000     -11.281616      -306.9884
   3   2.0000     -11.231048      -305.6123
   4   2.0000     -11.227313      -305.5107
   5   2.0000     -11.226284      -305.4827
   6   2.0000     -11.218262      -305.2644
   7   2.0000     -11.210726      -305.0594
   8   2.0000     -11.208492      -304.9986
   9   2.0000      -1.383455       -37.6457
  10   2.0000      -1.114238       -30.3200
  11   2.0000      -1.056106       -28.7381
  12   2.0000      -1.027607       -27.9626
  13   2.0000      -0.927575       -25.2406
  14   2.0000      -0.868633       -23.6367
  15   2.0000      -0.839179       -22.8352
  16   2.0000      -0.773806       -21.0563
  17   2.0000      -0.720814       -19.6143
  18   2.0000      -0.685748       -18.6602
  19   2.0000      -0.655234       -17.8298
  20   2.0000      -0.619295       -16.8519
  21   2.0000      -0.603458       -16.4209
  22   2.0000      -0.600974       -16.3533
  23   2.0000      -0.554636       -15.0924
  24   2.0000      -0.545623       -14.8471
  25   2.0000      -0.537814       -14.6347
  26   2.0000      -0.524894       -14.2831
  27   2.0000      -0.515901       -14.0384
  28   2.0000      -0.500032       -13.6066
  29   2.0000      -0.494270       -13.4498
  30   2.0000      -0.476761       -12.9733
  31   2.0000      -0.469163       -12.7666
  32   2.0000      -0.450101       -12.2479
  33   2.0000      -0.393096       -10.6967
  34   2.0000      -0.366431        -9.9711
  35   0.0000       0.138803         3.7770
  36   0.0000       0.151423         4.1204
  37   0.0000       0.158204         4.3049
  38   0.0000       0.170453         4.6383
  39   0.0000       0.184747         5.0272

MULLIKEN ATOMIC CHARGES
-----------------------
   0 C :   -0.394533
   1 C :   -0.196532
   2 C :    0.072937
   3 O :   -0.345064
   4 C :    0.192350
   5 C :   -0.191761
   6 C :   -0.408047
   7 C :   -0.284326
   8 C :   -0.162340
   9 H :    0.131294
  10 H :    0.145162
  11 H :    0.118760
  12 H :    0.105631
  13 H :    0.107080
  14 H :    0.090943
  15 H :    0.106605
  16 H :    0.112915
  17 H :    0.132171
  18 H :    0.146361
  19 H :    0.125101
  20 H :    0.126760
  21 H :    0.131869
  22 H :    0.136665
Sum of atomic charges:    0.0000000

LOEWDIN ATOMIC CHARGES
----------------------
   0 C :   -0.315873
   1 C :   -0.275129
   2 C :   -0.252664
   3 O :    0.180649
   4 C :   -0.283813
   5 C :   -0.254901
   6 C :   -0.307587
   7 C :   -0.189070
   8 C :   -0.160986
   9 H :    0.120190
  10 H :    0.126810
  11 H :    0.120389
  12 H :    0.138106
  13 H :    0.141403
  14 H :    0.143706
  15 H :    0.145084
  16 H :    0.143988
  17 H :    0.120077
  18 H :    0.127580
  19 H :    0.122022
  20 H :    0.142077
  21 H :    0.131717
  22 H :    0.136224

  Mayer bond orders larger than 0.1
B(  0-C ,  1-C ) :   0.9192 B(  0-C ,  9-H ) :   0.9397 B(  0-C , 10-H ) :   0.9361
B(  0-C , 11-H ) :   0.9366 B(  1-C ,  2-C ) :   0.9424 B(  1-C , 12-H ) :   0.9307
B(  1-C , 13-H ) :   0.9279 B(  2-C ,  3-O ) :   0.8893 B(  2-C ,  8-C ) :   0.9293
B(  2-C , 14-H ) :   0.9064 B(  3-O ,  4-C ) :   0.9539 B(  4-C ,  5-C ) :   0.9302
B(  4-C ,  7-C ) :   0.8723 B(  4-C ,  8-C ) :   0.8562 B(  5-C ,  6-C ) :   0.9281
B(  5-C , 15-H ) :   0.9212 B(  5-C , 16-H ) :   0.9304 B(  6-C , 17-H ) :   0.9389
B(  6-C , 18-H ) :   0.9371 B(  6-C , 19-H ) :   0.9360 B(  7-C ,  8-C ) :   0.8995
B(  7-C , 20-H ) :   0.9231 B(  7-C , 21-H ) :   0.9091 B(  8-C , 22-H ) :   0.9099

MP2 TOTAL ENERGY:     -387.582296971 Eh
FINAL SINGLE POINT ENERGY      -387.582296971158

DIPOLE MOMENT
-------------
                                X             Y             Z
Electronic contribution:     -0.60887      -1.50491       1.75011
Nuclear contribution   :      0.62204       1.05265      -1.34143
                        -----------------------------------------
Total Dipole Moment    :      0.01317      -0.45226       0.40869
                        -----------------------------------------
Magnitude (a.u.)       :      0.60970
Magnitude (Debye)      :      1.54974

                             ****ORCA TERMINATED NORMALLY****
TOTAL RUN TIME: 0 days 0 hours 30 minutes 50 seconds 928 msec
