                         Program Version 3.0.3 - RELEASE   -
|  1> ! RI-MP2 RIJK def2-TZVP def2-TZVP/C def2-TZVP/JK TIGHTSCF
|  2> % maxcore 2000
|  3> % mp2 density relaxed end
|  4> *xyz 0 1
|  5>  C        0.7035040604     1.4297650501     0.1017125626
|  6>  C       -0.1110267056     0.1450013166    -0.0943170224
|  7>  C        0.4099148323    -0.7130257841    -1.2864027049
|  8>  C        1.2647765374    -1.7874817330    -0.6504930010
|  9>  O        2.2231859716    -1.2789898407     0.2931403864
| 10>  C        0.9998039269    -1.8574329791     0.7939789376
| 11>  C        1.1533719798    -3.0903373237     1.6416911620
| 12>  C       -0.0376554255    -0.8004138403     1.1403425646
| 13>  H        1.7538579697     1.1942863626     0.2890942369
| 14>  H        0.6466356204     2.0686473778    -0.7866413519
| 15>  H        0.3226509146     2.0081103120     0.9508361493
| 16>  H       -1.1524011705     0.4287724374    -0.2764936350
| 17>  H       -0.4157087636    -1.1926920530    -1.8266298556
| 18>  H        0.9665681840    -0.1116969119    -2.0131264526
| 19>  H        1.5982557089    -2.6482565680    -1.2270340824
| 20>  H        1.9178272019    -3.7513054040     1.2255609001
| 21>  H        1.4534408798    -2.8247230653     2.6614966929
| 22>  H        0.2085225459    -3.6408438352     1.7046337350
| 23>  H        0.2190651583    -0.2589199360     2.0576383120
| 24>  H       -0.9992275167    -1.2977606423     1.3178009165
| 25> *
| 26>
| 27>                          ****END OF INPUT****

CARTESIAN COORDINATES (ANGSTROEM)
---------------------------------
  C      0.703504    1.429765    0.101713
  C     -0.111027    0.145001   -0.094317
  C      0.409915   -0.713026   -1.286403
  C      1.264777   -1.787482   -0.650493
  O      2.223186   -1.278990    0.293140
  C      0.999804   -1.857433    0.793979
  C      1.153372   -3.090337    1.641691
  C     -0.037655   -0.800414    1.140343
  H      1.753858    1.194286    0.289094
  H      0.646636    2.068647   -0.786641
  H      0.322651    2.008110    0.950836
  H     -1.152401    0.428772   -0.276494
  H     -0.415709   -1.192692   -1.826630
  H      0.966568   -0.111697   -2.013126
  H      1.598256   -2.648257   -1.227034
  H      1.917827   -3.751305    1.225561
  H      1.453441   -2.824723    2.661497
  H      0.208523   -3.640844    1.704634
  H      0.219065   -0.258920    2.057638
  H     -0.999228   -1.297761    1.317801

 Total Charge           Charge          ....    0
 Multiplicity           Mult            ....    1
 Number of Electrons    NEL             ....   62
 Basis Dimension        Dim             ....  320

ORBITAL ENERGIES
----------------

  NO   OCC          E(Eh)            E(eV)
   0   2.0000     -20.552960      -559.2745
   1   2.0000     -11.281292      -306.9796
   2   2.0000     -11.274030      -306.7819
   3   2.0000     -11.228779      -305.5506
   4   2.0000     -11.223304      -305.4016
   5   2.0000     -11.222545      -305.3810
   6   2.0000     -11.222511      -305.3801
   7   2.0000     -11.203386      -304.8596
   8   2.0000      -1.400784       -38.1173
   9   2.0000      -1.096942       -29.8493
  10   2.0000      -1.018035       -27.7021
  11   2.0000      -0.971883       -26.4463
  12   2.0000      -0.934778       -25.4366
  13   2.0000      -0.851948       -23.1827
  14   2.0000      -0.768479       -20.9114
  15   2.0000      -0.757173       -20.6037
  16   2.0000      -0.685023       -18.6404
  17   2.0000      -0.618828       -16.8392
  18   2.0000      -0.606184       -16.4951
  19   2.0000      -0.603044       -16.4097
  20   2.0000      -0.579252       -15.7622
  21   2.0000      -0.561903       -15.2902
  22   2.0000      -0.538927       -14.6650
  23   2.0000      -0.536568       -14.6008
  24   2.0000      -0.505303       -13.7500
  25   2.0000      -0.497741       -13.5442
  26   2.0000      -0.490538       -13.3482
  27   2.0000      -0.466574       -12.6961
  28   2.0000      -0.454124       -12.3573
  29   2.0000      -0.418315       -11.3829
  30   2.0000      -0.401254       -10.9187
  31   0.0000       0.133392         3.6298
  32   0.0000       0.155793         4.2393
  33   0.0000       0.172860         4.7038
  34   0.0000       0.177734         4.8364
  35   0.0000       0.194475         5.2919

MULLIKEN ATOMIC CHARGES
-----------------------
   0 C :   -0.468571
   1 C :    0.026094
   2 C :   -0.199769
   3 C :   -0.026555
   4 O :   -0.344994
   5 C :    0.161806
   6 C :   -0.427651
   7 C :   -0.218189
   8 H :    0.157553
   9 H :    0.123019
  10 H :    0.122496
  11 H :    0.099064
  12 H :    0.115622
  13 H :    0.118112
  14 H :    0.117797
  15 H :    0.142401
  16 H :    0.138087
  17 H :    0.130050
  18 H :    0.116557
  19 H :    0.117071
Sum of atomic charges:   -0.0000000

LOEWDIN ATOMIC CHARGES
----------------------
   0 C :   -0.300902
   1 C :   -0.248864
   2 C :   -0.216475
   3 C :   -0.243363
   4 O :    0.175902
   5 C :   -0.320457
   6 C :   -0.269405
   7 C :   -0.191097
   8 H :    0.128569
   9 H :    0.120130
  10 H :    0.120135
  11 H :    0.145306
  12 H :    0.142526
  13 H :    0.141992
  14 H :    0.134208
  15 H :    0.133100
  16 H :    0.131038
  17 H :    0.130322
  18 H :    0.143638
  19 H :    0.143698

  Mayer bond orders larger than 0.1
B(  0-C ,  1-C ) :   0.8872 B(  0-C ,  8-H ) :   0.9356 B(  0-C ,  9-H ) :   0.9391
B(  0-C , 10-H ) :   0.9389 B(  1-C ,  2-C ) :   0.9145 B(  1-C ,  7-C ) :   0.9095
B(  1-C , 11-H ) :   0.9384 B(  2-C ,  3-C ) :   0.9393 B(  2-C , 12-H ) :   0.9108
B(  2-C , 13-H ) :   0.9180 B(  3-C ,  4-O ) :   0.9100 B(  3-C ,  5-C ) :   0.9323
B(  3-C , 14-H ) :   0.9239 B(  4-O ,  5-C ) :   0.8783 B(  5-C ,  6-C ) :   0.8780
B(  5-C ,  7-C ) :   0.9606 B(  6-C , 15-H ) :   0.9416 B(  6-C , 16-H ) :   0.9424
B(  6-C , 17-H ) :   0.9332 B(  7-C , 18-H ) :   0.9169 B(  7-C , 19-H ) :   0.9142

MP2 TOTAL ENERGY:     -348.410840717 Eh
FINAL SINGLE POINT ENERGY      -348.410840717350

DIPOLE MOMENT
-------------
                                X             Y             Z
Electronic contribution:      2.66978      -2.02227      -1.04485
Nuclear contribution   :     -3.37585       1.70253       0.95762
                        -----------------------------------------
Total Dipole Moment    :     -0.70607      -0.31974      -0.08723
                        -----------------------------------------
Magnitude (a.u.)       :      0.77998
Magnitude (Debye)      :      1.98256

                             ****ORCA TERMINATED NORMALLY****
TOTAL RUN TIME: 0 days 0 hours 13 minutes 51 seconds 390 msec
