                         Program Version 3.0.3 - RELEASE   -
|  1> ! RI-MP2 RIJK def2-TZVP def2-TZVP/C def2-TZVP/JK TIGHTSCF
|  2> % maxcore 2000
|  3> % mp2 density relaxed end
|  4> *xyz 0 1
|  5>  O        0.0720432456     1.3692597827    -0.0134462665
|  6>  C       -0.0447108714    -0.0163673217     0.0713261980
|  7>  C       -0.4486718521    -0.7891048976     1.3050350415
|  8>  C       -1.5620889002    -0.0783755107     2.0282370732
|  9>  O       -2.7739262512    -0.8322901412     1.9443982853
| 10>  C       -2.4024918725    -0.0510004473     0.7949037358
| 11>  C       -3.2875313206     0.9547365438     0.3111664593
| 12>  C       -3.9945424290     1.8140835000    -0.1463040028
| 13>  C       -1.3310339950    -0.7853004071     0.0111332175
| 14>  H       -0.8010501590     1.7676954157     0.0661878741
| 15>  H        0.7739054560    -0.4820049344    -0.4725989253
| 16>  H        0.1342549453    -1.6119799994     1.7003985555
| 17>  H       -1.5021906204     0.6642911594     2.8144943664
| 18>  H       -4.6333152507     2.5653612556    -0.5413743499
| 19>  H       -1.5196831047    -1.5974042977    -0.6801906221
| 20> *
| 21>
| 22>                          ****END OF INPUT****

CARTESIAN COORDINATES (ANGSTROEM)
---------------------------------
  O      0.072043    1.369260   -0.013446
  C     -0.044711   -0.016367    0.071326
  C     -0.448672   -0.789105    1.305035
  C     -1.562089   -0.078376    2.028237
  O     -2.773926   -0.832290    1.944398
  C     -2.402492   -0.051000    0.794904
  C     -3.287531    0.954737    0.311166
  C     -3.994542    1.814083   -0.146304
  C     -1.331034   -0.785300    0.011133
  H     -0.801050    1.767695    0.066188
  H      0.773905   -0.482005   -0.472599
  H      0.134255   -1.611980    1.700399
  H     -1.502191    0.664291    2.814494
  H     -4.633315    2.565361   -0.541374
  H     -1.519683   -1.597404   -0.680191

 Total Charge           Charge          ....    0
 Multiplicity           Mult            ....    1
 Number of Electrons    NEL             ....   64
 Basis Dimension        Dim             ....  315

ORBITAL ENERGIES
----------------

  NO   OCC          E(Eh)            E(eV)
   0   2.0000     -20.588842      -560.2509
   1   2.0000     -20.572039      -559.7937
   2   2.0000     -11.330019      -308.3055
   3   2.0000     -11.312072      -307.8171
   4   2.0000     -11.311469      -307.8007
   5   2.0000     -11.262554      -306.4697
   6   2.0000     -11.257309      -306.3269
   7   2.0000     -11.256816      -306.3135
   8   2.0000     -11.250631      -306.1452
   9   2.0000      -1.440668       -39.2026
  10   2.0000      -1.383886       -37.6575
  11   2.0000      -1.178644       -32.0725
  12   2.0000      -1.065309       -28.9885
  13   2.0000      -0.952593       -25.9214
  14   2.0000      -0.931871       -25.3575
  15   2.0000      -0.844230       -22.9727
  16   2.0000      -0.792672       -21.5697
  17   2.0000      -0.752020       -20.4635
  18   2.0000      -0.721890       -19.6436
  19   2.0000      -0.716389       -19.4939
  20   2.0000      -0.678826       -18.4718
  21   2.0000      -0.615457       -16.7474
  22   2.0000      -0.596782       -16.2393
  23   2.0000      -0.583371       -15.8743
  24   2.0000      -0.553175       -15.0527
  25   2.0000      -0.542233       -14.7549
  26   2.0000      -0.501279       -13.6405
  27   2.0000      -0.466527       -12.6948
  28   2.0000      -0.429911       -11.6985
  29   2.0000      -0.423096       -11.5130
  30   2.0000      -0.403000       -10.9662
  31   2.0000      -0.377933       -10.2841
  32   0.0000       0.135227         3.6797
  33   0.0000       0.141125         3.8402
  34   0.0000       0.149347         4.0639
  35   0.0000       0.153546         4.1782
  36   0.0000       0.161593         4.3972

MULLIKEN ATOMIC CHARGES
-----------------------
   0 O :   -0.448818
   1 C :    0.031719
   2 C :   -0.096417
   3 C :    0.030296
   4 O :   -0.297559
   5 C :   -0.136328
   6 C :   -0.025782
   7 C :   -0.070318
   8 C :   -0.088516
   9 H :    0.334891
  10 H :    0.120902
  11 H :    0.150485
  12 H :    0.145526
  13 H :    0.202445
  14 H :    0.147474
Sum of atomic charges:   -0.0000000

LOEWDIN ATOMIC CHARGES
----------------------
   0 O :    0.010984
   1 C :   -0.283118
   2 C :   -0.136662
   3 C :   -0.191453
   4 O :    0.216552
   5 C :   -0.269969
   6 C :   -0.075002
   7 C :   -0.060363
   8 C :   -0.105093
   9 H :    0.185015
  10 H :    0.151454
  11 H :    0.141464
  12 H :    0.140854
  13 H :    0.131592
  14 H :    0.143744

  Mayer bond orders larger than 0.1
B(  0-O ,  1-C ) :   0.9923 B(  0-O ,  9-H ) :   0.8274 B(  1-C ,  2-C ) :   0.8300
B(  1-C ,  8-C ) :   0.8799 B(  1-C , 10-H ) :   0.9442 B(  2-C ,  3-C ) :   0.8942
B(  2-C ,  8-C ) :   0.8287 B(  2-C , 11-H ) :   0.9027 B(  3-C ,  4-O ) :   0.9192
B(  3-C ,  5-C ) :   0.9062 B(  3-C , 12-H ) :   0.9202 B(  4-O ,  5-C ) :   0.9442
B(  5-C ,  6-C ) :   1.2284 B(  5-C ,  7-C ) :  -0.1671 B(  5-C ,  8-C ) :   0.9153
B(  6-C ,  7-C ) :   2.5969 B(  7-C , 13-H ) :   0.8741 B(  8-C , 14-H ) :   0.9055

MP2 TOTAL ENERGY:     -419.807246977 Eh
FINAL SINGLE POINT ENERGY      -419.807246976507

DIPOLE MOMENT
-------------
                                X             Y             Z
Electronic contribution:     -2.44775      -0.08096       1.01732
Nuclear contribution   :      2.50865       0.19047      -1.26442
                        -----------------------------------------
Total Dipole Moment    :      0.06090       0.10951      -0.24710
                        -----------------------------------------
Magnitude (a.u.)       :      0.27706
Magnitude (Debye)      :      0.70423

                             ****ORCA TERMINATED NORMALLY****
TOTAL RUN TIME: 0 days 0 hours 15 minutes 43 seconds 517 msec
