                         Program Version 3.0.3 - RELEASE   -
|  1> ! RI-MP2 RIJK def2-TZVP def2-TZVP/C def2-TZVP/JK TIGHTSCF
|  2> % maxcore 2000
|  3> % mp2 density relaxed end
|  4> *xyz 0 1
|  5>  O       -0.0888978646     0.0776611884     0.3450499924
|  6>  C       -0.1183802647     1.2357952394     0.0903966838
|  7>  C       -1.1358305166     2.2831751680    -0.2009061390
|  8>  C       -0.7167469186     3.6055303086     0.5200495168
|  9>  C        0.2281788302     3.5732925440     1.7034803165
| 10>  C        1.3792925509     2.6742949098     1.2068789033
| 11>  O        2.3469491217     2.3291310698     1.8098939357
| 12>  N        1.0156201811     2.1968325192    -0.1291899326
| 13>  C        0.0176612706     3.1540069834    -0.6818728756
| 14>  H       -2.1372822253     2.1563535695    -0.5910570664
| 15>  H       -1.4619342073     4.3885600615     0.4363845989
| 16>  H        0.5980977495     4.5765301682     1.9385024476
| 17>  H       -0.1815635475     3.1470648185     2.6240537538
| 18>  H        0.1736996504     3.6309908417    -1.6383697653
| 19> *
| 20>
| 21>                          ****END OF INPUT****

CARTESIAN COORDINATES (ANGSTROEM)
---------------------------------
  O     -0.088898    0.077661    0.345050
  C     -0.118380    1.235795    0.090397
  C     -1.135831    2.283175   -0.200906
  C     -0.716747    3.605530    0.520050
  C      0.228179    3.573293    1.703480
  C      1.379293    2.674295    1.206879
  O      2.346949    2.329131    1.809894
  N      1.015620    2.196833   -0.129190
  C      0.017661    3.154007   -0.681873
  H     -2.137282    2.156354   -0.591057
  H     -1.461934    4.388560    0.436385
  H      0.598098    4.576530    1.938502
  H     -0.181564    3.147065    2.624054
  H      0.173700    3.630991   -1.638370

 Total Charge           Charge          ....    0
 Multiplicity           Mult            ....    1
 Number of Electrons    NEL             ....   64
 Basis Dimension        Dim             ....  309

ORBITAL ENERGIES
----------------

  NO   OCC          E(Eh)            E(eV)
   0   2.0000     -20.573403      -559.8308
   1   2.0000     -20.567907      -559.6812
   2   2.0000     -15.604043      -424.6076
   3   2.0000     -11.387985      -309.8828
   4   2.0000     -11.377745      -309.6042
   5   2.0000     -11.310402      -307.7717
   6   2.0000     -11.296324      -307.3886
   7   2.0000     -11.288072      -307.1640
   8   2.0000     -11.272559      -306.7419
   9   2.0000      -1.438195       -39.1353
  10   2.0000      -1.419797       -38.6346
  11   2.0000      -1.327044       -36.1107
  12   2.0000      -1.119995       -30.4766
  13   2.0000      -1.059010       -28.8171
  14   2.0000      -0.923646       -25.1337
  15   2.0000      -0.840209       -22.8632
  16   2.0000      -0.807683       -21.9782
  17   2.0000      -0.749930       -20.4066
  18   2.0000      -0.716630       -19.5005
  19   2.0000      -0.698102       -18.9963
  20   2.0000      -0.667615       -18.1667
  21   2.0000      -0.646589       -17.5946
  22   2.0000      -0.632725       -17.2173
  23   2.0000      -0.611448       -16.6384
  24   2.0000      -0.590581       -16.0705
  25   2.0000      -0.566918       -15.4266
  26   2.0000      -0.536370       -14.5954
  27   2.0000      -0.492346       -13.3974
  28   2.0000      -0.469492       -12.7755
  29   2.0000      -0.451620       -12.2892
  30   2.0000      -0.430172       -11.7056
  31   2.0000      -0.420703       -11.4479
  32   0.0000       0.108936         2.9643
  33   0.0000       0.125664         3.4195
  34   0.0000       0.144612         3.9351
  35   0.0000       0.154993         4.2176
  36   0.0000       0.160671         4.3721

MULLIKEN ATOMIC CHARGES
-----------------------
   0 O :   -0.218994
   1 C :    0.184413
   2 C :   -0.181391
   3 C :   -0.152173
   4 C :   -0.199035
   5 C :    0.157025
   6 O :   -0.218162
   7 N :   -0.110508
   8 C :   -0.042722
   9 H :    0.162107
  10 H :    0.147747
  11 H :    0.151775
  12 H :    0.151786
  13 H :    0.168132
Sum of atomic charges:    0.0000000

LOEWDIN ATOMIC CHARGES
----------------------
   0 O :    0.194403
   1 C :   -0.345031
   2 C :   -0.112917
   3 C :   -0.160475
   4 C :   -0.203237
   5 C :   -0.357204
   6 O :    0.190663
   7 N :    0.189170
   8 C :   -0.162718
   9 H :    0.148455
  10 H :    0.158744
  11 H :    0.158872
  12 H :    0.157378
  13 H :    0.143897

  Mayer bond orders larger than 0.1
B(  0-O ,  1-C ) :   2.0696 B(  1-C ,  2-C ) :   0.9761 B(  1-C ,  7-N ) :   0.8880
B(  2-C ,  3-C ) :   0.8045 B(  2-C ,  8-C ) :   0.8052 B(  2-C ,  9-H ) :   0.9004
B(  3-C ,  4-C ) :   0.9454 B(  3-C ,  8-C ) :   0.8836 B(  3-C , 10-H ) :   0.9184
B(  4-C ,  5-C ) :   0.9306 B(  4-C , 11-H ) :   0.8963 B(  4-C , 12-H ) :   0.9001
B(  5-C ,  6-O ) :   2.0844 B(  5-C ,  7-N ) :   0.9258 B(  7-N ,  8-C ) :   0.9260
B(  8-C , 13-H ) :   0.9099

MP2 TOTAL ENERGY:     -435.967267302 Eh
FINAL SINGLE POINT ENERGY      -435.967267302396

DIPOLE MOMENT
-------------
                                X             Y             Z
Electronic contribution:      2.93809      -4.11585      -0.46834
Nuclear contribution   :     -4.44100       5.86876       0.05192
                        -----------------------------------------
Total Dipole Moment    :     -1.50292       1.75291      -0.41642
                        -----------------------------------------
Magnitude (a.u.)       :      2.34624
Magnitude (Debye)      :      5.96367

                             ****ORCA TERMINATED NORMALLY****
TOTAL RUN TIME: 0 days 0 hours 16 minutes 55 seconds 206 msec
