                         Program Version 3.0.3 - RELEASE   -
|  1> ! RI-MP2 RIJK def2-TZVP def2-TZVP/C def2-TZVP/JK TIGHTSCF
|  2> % maxcore 2000
|  3> % mp2 density relaxed end
|  4> *xyz 0 1
|  5>  C       -0.0161799456     1.5445418286    -0.1928606937
|  6>  C       -0.0214602843     0.0410793574    -0.0109508185
|  7>  C       -1.3310413101    -0.5502183338     0.4558306144
|  8>  O       -1.7357797802     0.1091103400     1.6422267606
|  9>  C       -2.9440897184    -0.3700983964     2.1673080684
| 10>  C       -3.2556115700     0.4108288990     3.4322837909
| 11>  O       -4.2542462546     0.2563740173     4.0829232063
| 12>  C        0.8558634462    -0.7977193272    -0.8672822407
| 13>  N        1.1659276121    -0.6177714005     0.5629382549
| 14>  H        0.9557905685     1.8896258973    -0.5594305054
| 15>  H       -0.7778208800     1.8576188116    -0.9160238126
| 16>  H       -0.2318034247     2.0462637448     0.7543993147
| 17>  H       -2.1021420238    -0.4263306355    -0.3243720269
| 18>  H       -1.2023191343    -1.6268642994     0.6402450326
| 19>  H       -3.7835628635    -0.2517491288     1.4606664908
| 20>  H       -2.8887515780    -1.4428979689     2.4211075405
| 21>  H       -2.4659995845     1.1450230517     3.7060953764
| 22>  H        0.5587604854    -1.8056762991    -1.1463905107
| 23>  H        1.4671772414    -0.2894712808    -1.6087746162
| 24>  H        1.9179921885     0.0583697528     0.6727209643
| 25> *
| 26>
| 27>                          ****END OF INPUT****

CARTESIAN COORDINATES (ANGSTROEM)
---------------------------------
  C     -0.016180    1.544542   -0.192861
  C     -0.021460    0.041079   -0.010951
  C     -1.331041   -0.550218    0.455831
  O     -1.735780    0.109110    1.642227
  C     -2.944090   -0.370098    2.167308
  C     -3.255612    0.410829    3.432284
  O     -4.254246    0.256374    4.082923
  C      0.855863   -0.797719   -0.867282
  N      1.165928   -0.617771    0.562938
  H      0.955791    1.889626   -0.559431
  H     -0.777821    1.857619   -0.916024
  H     -0.231803    2.046264    0.754399
  H     -2.102142   -0.426331   -0.324372
  H     -1.202319   -1.626864    0.640245
  H     -3.783563   -0.251749    1.460666
  H     -2.888752   -1.442898    2.421108
  H     -2.466000    1.145023    3.706095
  H      0.558760   -1.805676   -1.146391
  H      1.467177   -0.289471   -1.608775
  H      1.917992    0.058370    0.672721

 Total Charge           Charge          ....    0
 Multiplicity           Mult            ....    1
 Number of Electrons    NEL             ....   70
 Basis Dimension        Dim             ....  345

ORBITAL ENERGIES
----------------

  NO   OCC          E(Eh)            E(eV)
   0   2.0000     -20.575300      -559.8824
   1   2.0000     -20.560250      -559.4728
   2   2.0000     -15.561568      -423.4518
   3   2.0000     -11.334646      -308.4314
   4   2.0000     -11.297398      -307.4178
   5   2.0000     -11.289760      -307.2100
   6   2.0000     -11.274109      -306.7841
   7   2.0000     -11.261162      -306.4318
   8   2.0000     -11.229667      -305.5748
   9   2.0000      -1.407270       -38.2938
  10   2.0000      -1.393823       -37.9279
  11   2.0000      -1.270170       -34.5631
  12   2.0000      -1.039761       -28.2933
  13   2.0000      -0.987310       -26.8661
  14   2.0000      -0.928983       -25.2789
  15   2.0000      -0.882804       -24.0223
  16   2.0000      -0.813015       -22.1233
  17   2.0000      -0.771699       -20.9990
  18   2.0000      -0.700477       -19.0609
  19   2.0000      -0.693264       -18.8647
  20   2.0000      -0.673984       -18.3400
  21   2.0000      -0.664027       -18.0691
  22   2.0000      -0.637214       -17.3395
  23   2.0000      -0.619612       -16.8605
  24   2.0000      -0.596378       -16.2283
  25   2.0000      -0.571348       -15.5472
  26   2.0000      -0.553124       -15.0513
  27   2.0000      -0.540435       -14.7060
  28   2.0000      -0.517979       -14.0949
  29   2.0000      -0.498632       -13.5685
  30   2.0000      -0.474768       -12.9191
  31   2.0000      -0.465139       -12.6571
  32   2.0000      -0.441120       -12.0035
  33   2.0000      -0.425791       -11.5864
  34   2.0000      -0.393481       -10.7072
  35   0.0000       0.126310         3.4371
  36   0.0000       0.128700         3.5021
  37   0.0000       0.145528         3.9600
  38   0.0000       0.167857         4.5676
  39   0.0000       0.169901         4.6233

MULLIKEN ATOMIC CHARGES
-----------------------
   0 C :   -0.380014
   1 C :    0.159873
   2 C :   -0.090323
   3 O :   -0.300077
   4 C :   -0.030750
   5 C :    0.089966
   6 O :   -0.266790
   7 C :   -0.230866
   8 N :   -0.378540
   9 H :    0.121718
  10 H :    0.129759
  11 H :    0.153930
  12 H :    0.100542
  13 H :    0.115023
  14 H :    0.117710
  15 H :    0.122238
  16 H :    0.096474
  17 H :    0.122803
  18 H :    0.129202
  19 H :    0.218122
Sum of atomic charges:    0.0000000

LOEWDIN ATOMIC CHARGES
----------------------
   0 C :   -0.273177
   1 C :   -0.339958
   2 C :   -0.279370
   3 O :    0.170634
   4 C :   -0.331740
   5 C :   -0.286027
   6 O :    0.135557
   7 C :   -0.247728
   8 N :    0.005425
   9 H :    0.126253
  10 H :    0.131230
  11 H :    0.132305
  12 H :    0.126045
  13 H :    0.133764
  14 H :    0.132693
  15 H :    0.135273
  16 H :    0.113573
  17 H :    0.126103
  18 H :    0.123122
  19 H :    0.166023

  Mayer bond orders larger than 0.1
B(  0-C ,  1-C ) :   0.9370 B(  0-C ,  9-H ) :   0.9235 B(  0-C , 10-H ) :   0.9274
B(  0-C , 11-H ) :   0.9362 B(  1-C ,  2-C ) :   0.9293 B(  1-C ,  7-C ) :   0.9287
B(  1-C ,  8-N ) :   0.8874 B(  2-C ,  3-O ) :   0.9351 B(  2-C , 12-H ) :   0.9262
B(  2-C , 13-H ) :   0.9175 B(  3-O ,  4-C ) :   0.9202 B(  4-C ,  5-C ) :   0.8923
B(  4-C , 14-H ) :   0.9039 B(  4-C , 15-H ) :   0.9038 B(  5-C ,  6-O ) :   1.9865
B(  5-C , 16-H ) :   0.9307 B(  7-C ,  8-N ) :   0.9533 B(  7-C , 17-H ) :   0.9091
B(  7-C , 18-H ) :   0.9186 B(  8-N , 19-H ) :   0.8729

MP2 TOTAL ENERGY:     -439.528163990 Eh
FINAL SINGLE POINT ENERGY      -439.528163990238

DIPOLE MOMENT
-------------
                                X             Y             Z
Electronic contribution:     -4.80381      -0.73786       7.00389
Nuclear contribution   :      5.42293       0.94817      -8.31487
                        -----------------------------------------
Total Dipole Moment    :      0.61912       0.21031      -1.31099
                        -----------------------------------------
Magnitude (a.u.)       :      1.46500
Magnitude (Debye)      :      3.72374

                             ****ORCA TERMINATED NORMALLY****
TOTAL RUN TIME: 0 days 0 hours 15 minutes 0 seconds 973 msec
