                         Program Version 3.0.3 - RELEASE   -
|  1> ! RI-MP2 RIJK def2-TZVP def2-TZVP/C def2-TZVP/JK TIGHTSCF
|  2> % maxcore 2000
|  3> % mp2 density relaxed end
|  4> *xyz 0 1
|  5>  C       -0.2681774238     1.5918866437     0.0298656973
|  6>  C        0.0648240068     0.0984079016     0.0175569631
|  7>  C       -1.2208887215    -0.7426126045    -0.0619913580
|  8>  C        1.0150684162    -0.2757642623    -1.1410900542
|  9>  O        1.7336566033    -1.4399406152    -0.7057350216
| 10>  C        1.7277555119    -1.5117249073     0.6620163531
| 11>  N        2.3012373658    -2.4126806627     1.3345263936
| 12>  C        0.9288635465    -0.3529509359     1.2147440035
| 13>  H        0.6372521084     2.2037135914     0.1021461327
| 14>  H       -0.8013744065     1.8851728646    -0.8815185627
| 15>  H       -0.9107029032     1.8421552361     0.8803809188
| 16>  H       -1.8020886637    -0.4852621367    -0.9539532223
| 17>  H       -0.9958363151    -1.8130312665    -0.1034912433
| 18>  H       -1.8543071226    -0.5668388000     0.8135169849
| 19>  H        0.4948042575    -0.5303558743    -2.0684355577
| 20>  H        1.7311861688     0.5302992739    -1.3494134332
| 21>  H        2.7850515364    -3.0656551488     0.7150456041
| 22>  H        1.6214089360     0.4420102175     1.5174051203
| 23>  H        0.3606686285    -0.6502772844     2.0972184016
| 24> *
| 25>
| 26>                          ****END OF INPUT****

CARTESIAN COORDINATES (ANGSTROEM)
---------------------------------
  C     -0.268177    1.591887    0.029866
  C      0.064824    0.098408    0.017557
  C     -1.220889   -0.742613   -0.061991
  C      1.015068   -0.275764   -1.141090
  O      1.733657   -1.439941   -0.705735
  C      1.727756   -1.511725    0.662016
  N      2.301237   -2.412681    1.334526
  C      0.928864   -0.352951    1.214744
  H      0.637252    2.203714    0.102146
  H     -0.801374    1.885173   -0.881519
  H     -0.910703    1.842155    0.880381
  H     -1.802089   -0.485262   -0.953953
  H     -0.995836   -1.813031   -0.103491
  H     -1.854307   -0.566839    0.813517
  H      0.494804   -0.530356   -2.068436
  H      1.731186    0.530299   -1.349413
  H      2.785052   -3.065655    0.715046
  H      1.621409    0.442010    1.517405
  H      0.360669   -0.650277    2.097218

 Total Charge           Charge          ....    0
 Multiplicity           Mult            ....    1
 Number of Electrons    NEL             ....   62
 Basis Dimension        Dim             ....  314

ORBITAL ENERGIES
----------------

  NO   OCC          E(Eh)            E(eV)
   0   2.0000     -20.588932      -560.2533
   1   2.0000     -15.524742      -422.4497
   2   2.0000     -11.330943      -308.3306
   3   2.0000     -11.291553      -307.2588
   4   2.0000     -11.255772      -306.2851
   5   2.0000     -11.239481      -305.8418
   6   2.0000     -11.231143      -305.6149
   7   2.0000     -11.226506      -305.4888
   8   2.0000      -1.425308       -38.7846
   9   2.0000      -1.188555       -32.3422
  10   2.0000      -1.121025       -30.5046
  11   2.0000      -0.983925       -26.7740
  12   2.0000      -0.948588       -25.8124
  13   2.0000      -0.940674       -25.5970
  14   2.0000      -0.782788       -21.3007
  15   2.0000      -0.761718       -20.7274
  16   2.0000      -0.689883       -18.7727
  17   2.0000      -0.674648       -18.3581
  18   2.0000      -0.650753       -17.7079
  19   2.0000      -0.615546       -16.7498
  20   2.0000      -0.609385       -16.5822
  21   2.0000      -0.581028       -15.8106
  22   2.0000      -0.559828       -15.2337
  23   2.0000      -0.539611       -14.6836
  24   2.0000      -0.527875       -14.3642
  25   2.0000      -0.518745       -14.1158
  26   2.0000      -0.494650       -13.4601
  27   2.0000      -0.471340       -12.8258
  28   2.0000      -0.466778       -12.7017
  29   2.0000      -0.426404       -11.6030
  30   2.0000      -0.391062       -10.6413
  31   0.0000       0.120202         3.2709
  32   0.0000       0.163637         4.4528
  33   0.0000       0.167415         4.5556
  34   0.0000       0.175921         4.7870
  35   0.0000       0.179487         4.8841

MULLIKEN ATOMIC CHARGES
-----------------------
   0 C :   -0.413779
   1 C :    0.078630
   2 C :   -0.451296
   3 C :   -0.045591
   4 O :   -0.260975
   5 C :    0.068465
   6 N :   -0.373939
   7 C :   -0.154717
   8 H :    0.132562
   9 H :    0.136242
  10 H :    0.139896
  11 H :    0.132115
  12 H :    0.155805
  13 H :    0.136286
  14 H :    0.121764
  15 H :    0.106794
  16 H :    0.221617
  17 H :    0.132842
  18 H :    0.137278
Sum of atomic charges:   -0.0000000

LOEWDIN ATOMIC CHARGES
----------------------
   0 C :   -0.269989
   1 C :   -0.325568
   2 C :   -0.264091
   3 C :   -0.232380
   4 O :    0.230625
   5 C :   -0.407448
   6 N :   -0.065117
   7 C :   -0.176340
   8 H :    0.125885
   9 H :    0.128126
  10 H :    0.129853
  11 H :    0.126001
  12 H :    0.133836
  13 H :    0.127785
  14 H :    0.131867
  15 H :    0.128284
  16 H :    0.167413
  17 H :    0.156827
  18 H :    0.154431

  Mayer bond orders larger than 0.1
B(  0-C ,  1-C ) :   0.9097 B(  0-C ,  8-H ) :   0.9288 B(  0-C ,  9-H ) :   0.9389
B(  0-C , 10-H ) :   0.9374 B(  1-C ,  2-C ) :   0.9242 B(  1-C ,  3-C ) :   0.9183
B(  1-C ,  7-C ) :   0.8998 B(  2-C , 11-H ) :   0.9361 B(  2-C , 12-H ) :   0.9245
B(  2-C , 13-H ) :   0.9356 B(  3-C ,  4-O ) :   0.8889 B(  3-C , 14-H ) :   0.9213
B(  3-C , 15-H ) :   0.9209 B(  4-O ,  5-C ) :   1.0761 B(  5-C ,  6-N ) :   2.0838
B(  5-C ,  7-C ) :   0.9186 B(  6-N , 16-H ) :   0.8558 B(  7-C , 17-H ) :   0.9112
B(  7-C , 18-H ) :   0.9103

MP2 TOTAL ENERGY:     -364.477001721 Eh
FINAL SINGLE POINT ENERGY      -364.477001721475

DIPOLE MOMENT
-------------
                                X             Y             Z
Electronic contribution:      6.17750      -5.35970       0.19561
Nuclear contribution   :     -6.83706       6.29161      -0.82032
                        -----------------------------------------
Total Dipole Moment    :     -0.65956       0.93191      -0.62471
                        -----------------------------------------
Magnitude (a.u.)       :      1.30144
Magnitude (Debye)      :      3.30799

                             ****ORCA TERMINATED NORMALLY****
TOTAL RUN TIME: 0 days 0 hours 14 minutes 48 seconds 516 msec
