                         Program Version 3.0.3 - RELEASE   -
|  1> ! RI-MP2 RIJK def2-TZVP def2-TZVP/C def2-TZVP/JK TIGHTSCF
|  2> % maxcore 2000
|  3> % mp2 density relaxed end
|  4> *xyz 0 1
|  5>  O        0.0045071227     1.3607557527     0.5164066240
|  6>  C       -0.0679570557     0.0096216995     0.1127847107
|  7>  C       -1.5076819898    -0.5198755243    -0.0541191562
|  8>  C       -2.1704285791    -0.0524857974    -1.3766837707
|  9>  C       -2.1534643744     1.3943282986    -1.5825218419
| 10>  N       -2.1122897399     2.5392114418    -1.7430393018
| 11>  C       -1.5465261355    -2.0350394390     0.0031649652
| 12>  C       -1.5839069684    -2.7444859334     1.3320669611
| 13>  C       -2.7982344110    -2.7579841632     0.4366565536
| 14>  H       -0.3007685772     1.9251504963    -0.2023599522
| 15>  H        0.5047432237    -0.1759198865    -0.8121939800
| 16>  H        0.4163831478    -0.5655854757     0.9080719904
| 17>  H       -2.0895313669    -0.1164518791     0.7834719307
| 18>  H       -1.6560297453    -0.5175265971    -2.2272209108
| 19>  H       -3.2094731601    -0.3964051705    -1.4126205010
| 20>  H       -0.9650669606    -2.5238083764    -0.7765808558
| 21>  H       -1.0141667575    -3.6599935097     1.4435435172
| 22>  H       -1.6253678087    -2.1358024020     2.2294047270
| 23>  H       -3.6508600314    -2.1579101867     0.7390884260
| 24>  H       -3.0626079525    -3.6828685879    -0.0635173655
| 25> *
| 26>
| 27>                          ****END OF INPUT****

CARTESIAN COORDINATES (ANGSTROEM)
---------------------------------
  O      0.004507    1.360756    0.516407
  C     -0.067957    0.009622    0.112785
  C     -1.507682   -0.519876   -0.054119
  C     -2.170429   -0.052486   -1.376684
  C     -2.153464    1.394328   -1.582522
  N     -2.112290    2.539211   -1.743039
  C     -1.546526   -2.035039    0.003165
  C     -1.583907   -2.744486    1.332067
  C     -2.798234   -2.757984    0.436657
  H     -0.300769    1.925150   -0.202360
  H      0.504743   -0.175920   -0.812194
  H      0.416383   -0.565585    0.908072
  H     -2.089531   -0.116452    0.783472
  H     -1.656030   -0.517527   -2.227221
  H     -3.209473   -0.396405   -1.412621
  H     -0.965067   -2.523808   -0.776581
  H     -1.014167   -3.659994    1.443544
  H     -1.625368   -2.135802    2.229405
  H     -3.650860   -2.157910    0.739088
  H     -3.062608   -3.682869   -0.063517

 Total Charge           Charge          ....    0
 Multiplicity           Mult            ....    1
 Number of Electrons    NEL             ....   68
 Basis Dimension        Dim             ....  345

ORBITAL ENERGIES
----------------

  NO   OCC          E(Eh)            E(eV)
   0   2.0000     -20.554583      -559.3186
   1   2.0000     -15.578741      -423.9191
   2   2.0000     -11.287459      -307.1474
   3   2.0000     -11.285003      -307.0805
   4   2.0000     -11.284679      -307.0717
   5   2.0000     -11.261004      -306.4275
   6   2.0000     -11.251935      -306.1807
   7   2.0000     -11.242943      -305.9360
   8   2.0000     -11.241208      -305.8888
   9   2.0000      -1.362815       -37.0841
  10   2.0000      -1.230243       -33.4766
  11   2.0000      -1.170312       -31.8458
  12   2.0000      -1.089091       -29.6357
  13   2.0000      -0.978139       -26.6165
  14   2.0000      -0.873964       -23.7818
  15   2.0000      -0.838901       -22.8277
  16   2.0000      -0.795837       -21.6558
  17   2.0000      -0.715932       -19.4815
  18   2.0000      -0.708529       -19.2800
  19   2.0000      -0.675108       -18.3706
  20   2.0000      -0.644792       -17.5457
  21   2.0000      -0.635875       -17.3030
  22   2.0000      -0.612332       -16.6624
  23   2.0000      -0.583191       -15.8694
  24   2.0000      -0.566614       -15.4183
  25   2.0000      -0.552055       -15.0222
  26   2.0000      -0.530918       -14.4470
  27   2.0000      -0.519626       -14.1398
  28   2.0000      -0.502636       -13.6774
  29   2.0000      -0.469476       -12.7751
  30   2.0000      -0.463765       -12.6197
  31   2.0000      -0.460066       -12.5190
  32   2.0000      -0.432168       -11.7599
  33   2.0000      -0.416612       -11.3366
  34   0.0000       0.122023         3.3204
  35   0.0000       0.135523         3.6878
  36   0.0000       0.147161         4.0044
  37   0.0000       0.152797         4.1578
  38   0.0000       0.169857         4.6220

MULLIKEN ATOMIC CHARGES
-----------------------
   0 O :   -0.463837
   1 C :   -0.060217
   2 C :   -0.105572
   3 C :   -0.129448
   4 C :   -0.192775
   5 N :   -0.062860
   6 C :   -0.129516
   7 C :   -0.266466
   8 C :   -0.256952
   9 H :    0.327360
  10 H :    0.102532
  11 H :    0.128762
  12 H :    0.109590
  13 H :    0.159417
  14 H :    0.166889
  15 H :    0.124518
  16 H :    0.137051
  17 H :    0.141626
  18 H :    0.133447
  19 H :    0.136452
Sum of atomic charges:   -0.0000000

LOEWDIN ATOMIC CHARGES
----------------------
   0 O :   -0.032369
   1 C :   -0.321009
   2 C :   -0.238609
   3 C :   -0.221109
   4 C :   -0.199981
   5 N :    0.051222
   6 C :   -0.214322
   7 C :   -0.221876
   8 C :   -0.225359
   9 H :    0.174545
  10 H :    0.120980
  11 H :    0.136388
  12 H :    0.165279
  13 H :    0.168330
  14 H :    0.169193
  15 H :    0.151567
  16 H :    0.133176
  17 H :    0.136824
  18 H :    0.134627
  19 H :    0.132502

  Mayer bond orders larger than 0.1
B(  0-O ,  1-C ) :   0.9682 B(  0-O ,  9-H ) :   0.8304 B(  1-C ,  2-C ) :   0.9174
B(  1-C , 10-H ) :   0.9295 B(  1-C , 11-H ) :   0.9297 B(  2-C ,  3-C ) :   0.9000
B(  2-C ,  6-C ) :   0.8966 B(  2-C , 12-H ) :   0.9157 B(  3-C ,  4-C ) :   0.9240
B(  3-C , 13-H ) :   0.9035 B(  3-C , 14-H ) :   0.9072 B(  4-C ,  5-N ) :   2.8404
B(  6-C ,  7-C ) :   0.8997 B(  6-C ,  8-C ) :   0.8859 B(  6-C , 15-H ) :   0.9127
B(  7-C ,  8-C ) :   0.9048 B(  7-C , 16-H ) :   0.9320 B(  7-C , 17-H ) :   0.9274
B(  8-C , 18-H ) :   0.9271 B(  8-C , 19-H ) :   0.9299

MP2 TOTAL ENERGY:     -402.459780595 Eh
FINAL SINGLE POINT ENERGY      -402.459780594599

DIPOLE MOMENT
-------------
                                X             Y             Z
Electronic contribution:     -0.19186       8.22358      -3.16852
Nuclear contribution   :     -0.07381     -10.02354       2.97298
                        -----------------------------------------
Total Dipole Moment    :     -0.26567      -1.79997      -0.19554
                        -----------------------------------------
Magnitude (a.u.)       :      1.82994
Magnitude (Debye)      :      4.65135

                             ****ORCA TERMINATED NORMALLY****
TOTAL RUN TIME: 0 days 0 hours 17 minutes 14 seconds 921 msec
