                         Program Version 3.0.3 - RELEASE   -
|  1> ! RI-MP2 RIJK def2-TZVP def2-TZVP/C def2-TZVP/JK TIGHTSCF
|  2> % maxcore 2000
|  3> % mp2 density relaxed end
|  4> *xyz 0 1
|  5>  N        0.0489198286     1.3926355139     0.0683546904
|  6>  C       -0.0253170452     0.0004498987     0.0315866529
|  7>  C       -1.2066124418    -0.6821215740     0.0071399543
|  8>  N       -2.4375052200     0.0047111714    -0.0551567333
|  9>  C       -1.1918180980    -2.1275737538    -0.0504110451
| 10>  N       -2.3098618886    -2.7778038417    -0.1399139261
| 11>  C        0.1527453707    -2.6958695555    -0.0025098542
| 12>  N        1.2631455874    -2.0286800838     0.0726094446
| 13>  N        1.1621265913    -0.6893513585     0.0669536263
| 14>  H        0.8284285387     1.7694275365    -0.4589799378
| 15>  H       -0.8214644129     1.7892499258    -0.2729037214
| 16>  H       -2.6386385233     0.5171427867     0.7984246138
| 17>  H       -3.1651878355    -0.6967226770    -0.1832274837
| 18>  H       -2.1435293671    -3.7828291275    -0.1949650369
| 19>  H        0.2647391520    -3.7772183072     0.0006064954
| 20>  H        2.0301445538    -0.2056078942     0.2292803808
| 21> *
| 22>
| 23>                          ****END OF INPUT****

CARTESIAN COORDINATES (ANGSTROEM)
---------------------------------
  N      0.048920    1.392636    0.068355
  C     -0.025317    0.000450    0.031587
  C     -1.206612   -0.682122    0.007140
  N     -2.437505    0.004711   -0.055157
  C     -1.191818   -2.127574   -0.050411
  N     -2.309862   -2.777804   -0.139914
  C      0.152745   -2.695870   -0.002510
  N      1.263146   -2.028680    0.072609
  N      1.162127   -0.689351    0.066954
  H      0.828429    1.769428   -0.458980
  H     -0.821464    1.789250   -0.272904
  H     -2.638639    0.517143    0.798425
  H     -3.165188   -0.696723   -0.183227
  H     -2.143529   -3.782829   -0.194965
  H      0.264739   -3.777218    0.000606
  H      2.030145   -0.205608    0.229280

 Total Charge           Charge          ....    0
 Multiplicity           Mult            ....    1
 Number of Electrons    NEL             ....   66
 Basis Dimension        Dim             ....  321

ORBITAL ENERGIES
----------------

  NO   OCC          E(Eh)            E(eV)
   0   2.0000     -15.643376      -425.6779
   1   2.0000     -15.634123      -425.4261
   2   2.0000     -15.591534      -424.2672
   3   2.0000     -15.548524      -423.0968
   4   2.0000     -15.517086      -422.2414
   5   2.0000     -11.332100      -308.3621
   6   2.0000     -11.286081      -307.1099
   7   2.0000     -11.279153      -306.9214
   8   2.0000     -11.251808      -306.1773
   9   2.0000      -1.382516       -37.6202
  10   2.0000      -1.254897       -34.1475
  11   2.0000      -1.218637       -33.1608
  12   2.0000      -1.162762       -31.6404
  13   2.0000      -1.119706       -30.4688
  14   2.0000      -1.020041       -27.7567
  15   2.0000      -0.881218       -23.9792
  16   2.0000      -0.860117       -23.4050
  17   2.0000      -0.772107       -21.0101
  18   2.0000      -0.749252       -20.3882
  19   2.0000      -0.696386       -18.9496
  20   2.0000      -0.667862       -18.1734
  21   2.0000      -0.652386       -17.7523
  22   2.0000      -0.633847       -17.2479
  23   2.0000      -0.625121       -17.0104
  24   2.0000      -0.610497       -16.6125
  25   2.0000      -0.562650       -15.3105
  26   2.0000      -0.512952       -13.9581
  27   2.0000      -0.496409       -13.5080
  28   2.0000      -0.484333       -13.1794
  29   2.0000      -0.435127       -11.8404
  30   2.0000      -0.408938       -11.1278
  31   2.0000      -0.371205       -10.1010
  32   2.0000      -0.279072        -7.5939
  33   0.0000       0.103998         2.8299
  34   0.0000       0.115989         3.1562
  35   0.0000       0.143029         3.8920
  36   0.0000       0.154238         4.1970
  37   0.0000       0.160372         4.3640

MULLIKEN ATOMIC CHARGES
-----------------------
   0 N :   -0.526877
   1 C :    0.174876
   2 C :    0.128440
   3 N :   -0.591173
   4 C :    0.088753
   5 N :   -0.477588
   6 C :   -0.101854
   7 N :   -0.173254
   8 N :   -0.152276
   9 H :    0.244385
  10 H :    0.272856
  11 H :    0.257534
  12 H :    0.276952
  13 H :    0.196461
  14 H :    0.126633
  15 H :    0.256132
Sum of atomic charges:    0.0000000

LOEWDIN ATOMIC CHARGES
----------------------
   0 N :   -0.073325
   1 C :   -0.304995
   2 C :   -0.228247
   3 N :   -0.095054
   4 C :   -0.317385
   5 N :   -0.114101
   6 C :   -0.218615
   7 N :    0.054840
   8 N :    0.109738
   9 H :    0.169370
  10 H :    0.181665
  11 H :    0.168993
  12 H :    0.179313
  13 H :    0.152434
  14 H :    0.142691
  15 H :    0.192679

  Mayer bond orders larger than 0.1
B(  0-N ,  1-C ) :   1.0396 B(  0-N ,  9-H ) :   0.8720 B(  0-N , 10-H ) :   0.8538
B(  1-C ,  2-C ) :   1.4930 B(  1-C ,  8-N ) :   1.1319 B(  2-C ,  3-N ) :   0.9423
B(  2-C ,  4-C ) :   1.0949 B(  3-N , 11-H ) :   0.8708 B(  3-N , 12-H ) :   0.8581
B(  4-C ,  5-N ) :   1.7772 B(  4-C ,  6-C ) :   1.0412 B(  5-N , 13-H ) :   0.8702
B(  6-C ,  7-N ) :   1.6800 B(  6-C , 14-H ) :   0.9380 B(  7-N ,  8-N ) :   0.9984
B(  8-N , 15-H ) :   0.8694

MP2 TOTAL ENERGY:     -429.530553574 Eh
FINAL SINGLE POINT ENERGY      -429.530553573985

DIPOLE MOMENT
-------------
                                X             Y             Z
Electronic contribution:      2.79235      -1.51560       0.12356
Nuclear contribution   :     -1.89354       2.60525      -0.07279
                        -----------------------------------------
Total Dipole Moment    :      0.89882       1.08964       0.05076
                        -----------------------------------------
Magnitude (a.u.)       :      1.41342
Magnitude (Debye)      :      3.59264

                             ****ORCA TERMINATED NORMALLY****
TOTAL RUN TIME: 0 days 0 hours 16 minutes 52 seconds 170 msec
