                         Program Version 3.0.3 - RELEASE   -
|  1> ! RI-MP2 RIJK def2-TZVP def2-TZVP/C def2-TZVP/JK TIGHTSCF
|  2> % maxcore 2000
|  3> % mp2 density relaxed end
|  4> *xyz 0 1
|  5>  C        0.3016442523     1.3046881369    -0.3229731900
|  6>  C        0.1556757547    -0.0982641947     0.2103148566
|  7>  O        1.3423060170    -0.7825624846     0.6298242598
|  8>  C        0.3377264462    -0.5079318092     1.6139225714
|  9>  C        0.7338940691     0.4280285682     2.7252759562
| 10>  O        1.4888653677    -0.2709596985     3.7254021230
| 11>  C        2.8200727599    -0.3877048543     3.5166379442
| 12>  O        3.5314918227    -0.9831631090     4.2667790909
| 13>  H        0.9851696123     1.9081339083     0.2769910042
| 14>  H        0.6914286259     1.2729481068    -1.3453928561
| 15>  H       -0.6731016967     1.8030163329    -0.3529947241
| 16>  H       -0.5148094759    -0.7280766118    -0.3780165359
| 17>  H       -0.1975404144    -1.3933354471     1.9604986852
| 18>  H        1.3100093037     1.2751537004     2.3417869541
| 19>  H       -0.1497279178     0.8109707330     3.2429760048
| 20>  H        3.1587657933     0.1263709126     2.5986127758
| 21> *
| 22>
| 23>                          ****END OF INPUT****

CARTESIAN COORDINATES (ANGSTROEM)
---------------------------------
  C      0.301644    1.304688   -0.322973
  C      0.155676   -0.098264    0.210315
  O      1.342306   -0.782562    0.629824
  C      0.337726   -0.507932    1.613923
  C      0.733894    0.428029    2.725276
  O      1.488865   -0.270960    3.725402
  C      2.820073   -0.387705    3.516638
  O      3.531492   -0.983163    4.266779
  H      0.985170    1.908134    0.276991
  H      0.691429    1.272948   -1.345393
  H     -0.673102    1.803016   -0.352995
  H     -0.514809   -0.728077   -0.378017
  H     -0.197540   -1.393335    1.960499
  H      1.310009    1.275154    2.341787
  H     -0.149728    0.810971    3.242976
  H      3.158766    0.126371    2.598613

 Total Charge           Charge          ....    0
 Multiplicity           Mult            ....    1
 Number of Electrons    NEL             ....   62
 Basis Dimension        Dim             ....  296

ORBITAL ENERGIES
----------------

  NO   OCC          E(Eh)            E(eV)
   0   2.0000     -20.610000      -560.8266
   1   2.0000     -20.585386      -560.1568
   2   2.0000     -20.547792      -559.1338
   3   2.0000     -11.379528      -309.6527
   4   2.0000     -11.316603      -307.9404
   5   2.0000     -11.311174      -307.7927
   6   2.0000     -11.306267      -307.6592
   7   2.0000     -11.246204      -306.0248
   8   2.0000      -1.462327       -39.7919
   9   2.0000      -1.429907       -38.9098
  10   2.0000      -1.371116       -37.3100
  11   2.0000      -1.040844       -28.3228
  12   2.0000      -1.024125       -27.8679
  13   2.0000      -0.897930       -24.4339
  14   2.0000      -0.853169       -23.2159
  15   2.0000      -0.813492       -22.1362
  16   2.0000      -0.741960       -20.1898
  17   2.0000      -0.703852       -19.1528
  18   2.0000      -0.681316       -18.5395
  19   2.0000      -0.677429       -18.4338
  20   2.0000      -0.620320       -16.8798
  21   2.0000      -0.610631       -16.6161
  22   2.0000      -0.598475       -16.2853
  23   2.0000      -0.581072       -15.8118
  24   2.0000      -0.553546       -15.0627
  25   2.0000      -0.538175       -14.6445
  26   2.0000      -0.521634       -14.1944
  27   2.0000      -0.483458       -13.1556
  28   2.0000      -0.462523       -12.5859
  29   2.0000      -0.450148       -12.2491
  30   2.0000      -0.445534       -12.1236
  31   0.0000       0.125600         3.4177
  32   0.0000       0.141794         3.8584
  33   0.0000       0.158044         4.3006
  34   0.0000       0.168648         4.5891
  35   0.0000       0.181569         4.9407

MULLIKEN ATOMIC CHARGES
-----------------------
   0 C :   -0.378885
   1 C :    0.044559
   2 O :   -0.338214
   3 C :    0.021444
   4 C :   -0.103421
   5 O :   -0.220667
   6 C :    0.208763
   7 O :   -0.269157
   8 H :    0.126530
   9 H :    0.148091
  10 H :    0.136442
  11 H :    0.118725
  12 H :    0.137681
  13 H :    0.139590
  14 H :    0.139166
  15 H :    0.089353
Sum of atomic charges:   -0.0000000

LOEWDIN ATOMIC CHARGES
----------------------
   0 C :   -0.292808
   1 C :   -0.285467
   2 O :    0.161615
   3 C :   -0.277117
   4 C :   -0.280978
   5 O :    0.236234
   6 C :   -0.442979
   7 O :    0.123660
   8 H :    0.124844
   9 H :    0.133676
  10 H :    0.132908
  11 H :    0.140840
  12 H :    0.144608
  13 H :    0.131740
  14 H :    0.142081
  15 H :    0.107143

  Mayer bond orders larger than 0.1
B(  0-C ,  1-C ) :   0.8894 B(  0-C ,  8-H ) :   0.9436 B(  0-C ,  9-H ) :   0.9326
B(  0-C , 10-H ) :   0.9237 B(  1-C ,  2-O ) :   0.8962 B(  1-C ,  3-C ) :   0.9507
B(  1-C , 11-H ) :   0.9180 B(  2-O ,  3-C ) :   0.8663 B(  3-C ,  4-C ) :   0.9167
B(  3-C , 12-H ) :   0.9083 B(  4-C ,  5-O ) :   0.8437 B(  4-C , 13-H ) :   0.9571
B(  4-C , 14-H ) :   0.9208 B(  5-O ,  6-C ) :   1.0519 B(  6-C ,  7-O ) :   2.0202
B(  6-C , 15-H ) :   0.9149

MP2 TOTAL ENERGY:     -420.207128551 Eh
FINAL SINGLE POINT ENERGY      -420.207128551077

DIPOLE MOMENT
-------------
                                X             Y             Z
Electronic contribution:      4.47212      -4.77496       6.42842
Nuclear contribution   :     -5.89794       5.94034      -7.60680
                        -----------------------------------------
Total Dipole Moment    :     -1.42582       1.16538      -1.17837
                        -----------------------------------------
Magnitude (a.u.)       :      2.18624
Magnitude (Debye)      :      5.55697

                             ****ORCA TERMINATED NORMALLY****
TOTAL RUN TIME: 0 days 0 hours 10 minutes 2 seconds 626 msec
