                         Program Version 3.0.3 - RELEASE   -
|  1> ! RI-MP2 RIJK def2-TZVP def2-TZVP/C def2-TZVP/JK TIGHTSCF
|  2> % maxcore 2000
|  3> % mp2 density relaxed end
|  4> *xyz 0 1
|  5>  C        0.0459586384     1.5652580019    -0.0626964093
|  6>  C        0.0882309701     0.0359543700    -0.0230931918
|  7>  C        0.6968740273    -0.5286510609     1.2579728611
|  8>  C        0.6582654937    -2.0515916127     1.3253210526
|  9>  O        2.0772612660    -0.0729960695     1.2779173454
| 10>  C        2.6874676412     0.0399106689     2.4680774901
| 11>  N        2.1229776029    -0.2502276966     3.5732292348
| 12>  C        4.0347131887     0.5275636440     2.3249445695
| 13>  C        5.1652238282     0.9311396803     2.2589134627
| 14>  H        1.0519759851     1.9844437575     0.0228395987
| 15>  H       -0.3915738422     1.9212001779    -1.0001167399
| 16>  H       -0.5564052178     1.9659411164     0.7601983152
| 17>  H       -0.9260485801    -0.3709110124    -0.1137051379
| 18>  H        0.6572124746    -0.3485141923    -0.8786275460
| 19>  H        0.1987191779    -0.1078205270     2.1371987929
| 20>  H        1.1110909521    -2.4057979110     2.2531650446
| 21>  H       -0.3790925892    -2.3993846277     1.2950772016
| 22>  H        1.1933195921    -2.4885186099     0.4761696779
| 23>  H        2.7569163948    -0.0778725167     4.3496337150
| 24>  H        6.1639002960     1.2885311100     2.1971417929
| 25> *
| 26>
| 27>                          ****END OF INPUT****

CARTESIAN COORDINATES (ANGSTROEM)
---------------------------------
  C      0.045959    1.565258   -0.062696
  C      0.088231    0.035954   -0.023093
  C      0.696874   -0.528651    1.257973
  C      0.658265   -2.051592    1.325321
  O      2.077261   -0.072996    1.277917
  C      2.687468    0.039911    2.468077
  N      2.122978   -0.250228    3.573229
  C      4.034713    0.527564    2.324945
  C      5.165224    0.931140    2.258913
  H      1.051976    1.984444    0.022840
  H     -0.391574    1.921200   -1.000117
  H     -0.556405    1.965941    0.760198
  H     -0.926049   -0.370911   -0.113705
  H      0.657212   -0.348514   -0.878628
  H      0.198719   -0.107821    2.137199
  H      1.111091   -2.405798    2.253165
  H     -0.379093   -2.399385    1.295077
  H      1.193320   -2.488519    0.476170
  H      2.756916   -0.077873    4.349634
  H      6.163900    1.288531    2.197142

 Total Charge           Charge          ....    0
 Multiplicity           Mult            ....    1
 Number of Electrons    NEL             ....   68
 Basis Dimension        Dim             ....  345

ORBITAL ENERGIES
----------------

  NO   OCC          E(Eh)            E(eV)
   0   2.0000     -20.591080      -560.3118
   1   2.0000     -15.546614      -423.0449
   2   2.0000     -11.366159      -309.2889
   3   2.0000     -11.285470      -307.0932
   4   2.0000     -11.257893      -306.3428
   5   2.0000     -11.253572      -306.2253
   6   2.0000     -11.222867      -305.3897
   7   2.0000     -11.212763      -305.1148
   8   2.0000     -11.211156      -305.0711
   9   2.0000      -1.429835       -38.9078
  10   2.0000      -1.207733       -32.8641
  11   2.0000      -1.078854       -29.3571
  12   2.0000      -1.049820       -28.5671
  13   2.0000      -0.988680       -26.9034
  14   2.0000      -0.902410       -24.5558
  15   2.0000      -0.856273       -23.3004
  16   2.0000      -0.782624       -21.2963
  17   2.0000      -0.765875       -20.8405
  18   2.0000      -0.714655       -19.4467
  19   2.0000      -0.686804       -18.6889
  20   2.0000      -0.644069       -17.5260
  21   2.0000      -0.598429       -16.2841
  22   2.0000      -0.593079       -16.1385
  23   2.0000      -0.571050       -15.5391
  24   2.0000      -0.561189       -15.2707
  25   2.0000      -0.527171       -14.3450
  26   2.0000      -0.512951       -13.9581
  27   2.0000      -0.490431       -13.3453
  28   2.0000      -0.484737       -13.1904
  29   2.0000      -0.469798       -12.7838
  30   2.0000      -0.460434       -12.5290
  31   2.0000      -0.434486       -11.8230
  32   2.0000      -0.413575       -11.2540
  33   2.0000      -0.386885       -10.5277
  34   0.0000       0.107013         2.9120
  35   0.0000       0.142264         3.8712
  36   0.0000       0.153660         4.1813
  37   0.0000       0.161316         4.3896
  38   0.0000       0.163925         4.4606

MULLIKEN ATOMIC CHARGES
-----------------------
   0 C :   -0.399693
   1 C :   -0.171877
   2 C :    0.066526
   3 C :   -0.407438
   4 O :   -0.250127
   5 C :    0.047852
   6 N :   -0.404375
   7 C :    0.002146
   8 C :   -0.063512
   9 H :    0.141230
  10 H :    0.133598
  11 H :    0.121503
  12 H :    0.110937
  13 H :    0.111801
  14 H :    0.112419
  15 H :    0.161008
  16 H :    0.129294
  17 H :    0.127840
  18 H :    0.228646
  19 H :    0.202220
Sum of atomic charges:   -0.0000000

LOEWDIN ATOMIC CHARGES
----------------------
   0 C :   -0.317820
   1 C :   -0.275496
   2 C :   -0.305437
   3 C :   -0.292063
   4 O :    0.291541
   5 C :   -0.423472
   6 N :   -0.044787
   7 C :   -0.065638
   8 C :   -0.055546
   9 H :    0.124635
  10 H :    0.121283
  11 H :    0.121369
  12 H :    0.142589
  13 H :    0.141296
  14 H :    0.148514
  15 H :    0.130160
  16 H :    0.128539
  17 H :    0.126070
  18 H :    0.173124
  19 H :    0.131139

  Mayer bond orders larger than 0.1
B(  0-C ,  1-C ) :   0.9229 B(  0-C ,  9-H ) :   0.9386 B(  0-C , 10-H ) :   0.9402
B(  0-C , 11-H ) :   0.9365 B(  1-C ,  2-C ) :   0.9161 B(  1-C , 12-H ) :   0.9301
B(  1-C , 13-H ) :   0.9263 B(  2-C ,  3-C ) :   0.9286 B(  2-C ,  4-O ) :   0.8047
B(  2-C , 14-H ) :   0.9280 B(  3-C , 15-H ) :   0.9350 B(  3-C , 16-H ) :   0.9336
B(  3-C , 17-H ) :   0.9316 B(  4-O ,  5-C ) :   1.1669 B(  5-C ,  6-N ) :   1.8872
B(  5-C ,  7-C ) :   1.1463 B(  5-C ,  8-C ) :  -0.1323 B(  6-N , 18-H ) :   0.8609
B(  7-C ,  8-C ) :   2.6066 B(  8-C , 19-H ) :   0.8776

MP2 TOTAL ENERGY:     -402.426036855 Eh
FINAL SINGLE POINT ENERGY      -402.426036854544

DIPOLE MOMENT
-------------
                                X             Y             Z
Electronic contribution:      9.38104       1.13044       5.30848
Nuclear contribution   :     -9.13073      -1.01998      -5.42954
                        -----------------------------------------
Total Dipole Moment    :      0.25031       0.11046      -0.12105
                        -----------------------------------------
Magnitude (a.u.)       :      0.29919
Magnitude (Debye)      :      0.76047

                             ****ORCA TERMINATED NORMALLY****
TOTAL RUN TIME: 0 days 0 hours 20 minutes 25 seconds 737 msec
