                         Program Version 3.0.3 - RELEASE   -
|  1> ! RI-MP2 RIJK def2-TZVP def2-TZVP/C def2-TZVP/JK TIGHTSCF
|  2> % maxcore 2000
|  3> % mp2 density relaxed end
|  4> *xyz 0 1
|  5>  C       -0.0411351050     1.3702434409     0.0590751706
|  6>  C        1.3234352902     0.7489631879     0.0309678675
|  7>  C        2.2733840922     0.6560238935     1.1809383174
|  8>  O        1.6404535175     0.0119924851     2.3243230015
|  9>  C        0.5673921895    -0.7996775883     2.1692922716
| 10>  N       -0.2120967416    -0.9559016366     1.1739178090
| 11>  C        0.1167919528    -0.1397488302     0.0605372697
| 12>  C        0.5785729967    -0.6191816876    -1.3133479315
| 13>  O        1.6869063716     0.3396445654    -1.2934567711
| 14>  H       -0.3630047039     1.7866151559     1.0081011473
| 15>  H       -0.4025617653     1.8854919140    -0.8258152211
| 16>  H        3.1304461302     0.0462174856     0.8765310272
| 17>  H        2.6370917025     1.6115723718     1.5688348374
| 18>  H        0.3995175720    -1.3512071439     3.0919070254
| 19>  H        0.9566135845    -1.6466896042    -1.3048964405
| 20>  H       -0.0871382140    -0.4678810894    -2.1700213403
| 21> *
| 22>
| 23>                          ****END OF INPUT****

CARTESIAN COORDINATES (ANGSTROEM)
---------------------------------
  C     -0.041135    1.370243    0.059075
  C      1.323435    0.748963    0.030968
  C      2.273384    0.656024    1.180938
  O      1.640454    0.011992    2.324323
  C      0.567392   -0.799678    2.169292
  N     -0.212097   -0.955902    1.173918
  C      0.116792   -0.139749    0.060537
  C      0.578573   -0.619182   -1.313348
  O      1.686906    0.339645   -1.293457
  H     -0.363005    1.786615    1.008101
  H     -0.402562    1.885492   -0.825815
  H      3.130446    0.046217    0.876531
  H      2.637092    1.611572    1.568835
  H      0.399518   -1.351207    3.091907
  H      0.956614   -1.646690   -1.304896
  H     -0.087138   -0.467881   -2.170021

 Total Charge           Charge          ....    0
 Multiplicity           Mult            ....    1
 Number of Electrons    NEL             ....   66
 Basis Dimension        Dim             ....  321

ORBITAL ENERGIES
----------------

  NO   OCC          E(Eh)            E(eV)
   0   2.0000     -20.608081      -560.7744
   1   2.0000     -20.566937      -559.6548
   2   2.0000     -15.559532      -423.3964
   3   2.0000     -11.347010      -308.7678
   4   2.0000     -11.310623      -307.7777
   5   2.0000     -11.293670      -307.3164
   6   2.0000     -11.292834      -307.2936
   7   2.0000     -11.271871      -306.7232
   8   2.0000     -11.249426      -306.1124
   9   2.0000      -1.436302       -39.0838
  10   2.0000      -1.399606       -38.0852
  11   2.0000      -1.238036       -33.6887
  12   2.0000      -1.122869       -30.5548
  13   2.0000      -1.004782       -27.3415
  14   2.0000      -0.955753       -26.0074
  15   2.0000      -0.849734       -23.1224
  16   2.0000      -0.834012       -22.6946
  17   2.0000      -0.738796       -20.1037
  18   2.0000      -0.723948       -19.6996
  19   2.0000      -0.682972       -18.5846
  20   2.0000      -0.664597       -18.0846
  21   2.0000      -0.655333       -17.8325
  22   2.0000      -0.628241       -17.0953
  23   2.0000      -0.588737       -16.0203
  24   2.0000      -0.574329       -15.6283
  25   2.0000      -0.567669       -15.4471
  26   2.0000      -0.551274       -15.0009
  27   2.0000      -0.513826       -13.9819
  28   2.0000      -0.487862       -13.2754
  29   2.0000      -0.483089       -13.1455
  30   2.0000      -0.433621       -11.7994
  31   2.0000      -0.391379       -10.6500
  32   2.0000      -0.351517        -9.5653
  33   0.0000       0.139315         3.7910
  34   0.0000       0.156033         4.2459
  35   0.0000       0.166718         4.5366
  36   0.0000       0.174882         4.7588
  37   0.0000       0.183257         4.9867

MULLIKEN ATOMIC CHARGES
-----------------------
   0 C :   -0.263485
   1 C :    0.116388
   2 C :   -0.062385
   3 O :   -0.257616
   4 C :    0.104742
   5 N :   -0.277861
   6 C :    0.043832
   7 C :   -0.009619
   8 O :   -0.322284
   9 H :    0.148291
  10 H :    0.144987
  11 H :    0.135603
  12 H :    0.133258
  13 H :    0.140939
  14 H :    0.111053
  15 H :    0.114158
Sum of atomic charges:   -0.0000000

LOEWDIN ATOMIC CHARGES
----------------------
   0 C :   -0.147176
   1 C :   -0.291298
   2 C :   -0.220932
   3 O :    0.223730
   4 C :   -0.336851
   5 N :    0.109139
   6 C :   -0.263879
   7 C :   -0.196368
   8 O :    0.160655
   9 H :    0.151638
  10 H :    0.143013
  11 H :    0.144730
  12 H :    0.135407
  13 H :    0.135993
  14 H :    0.129936
  15 H :    0.122263

  Mayer bond orders larger than 0.1
B(  0-C ,  1-C ) :   0.8993 B(  0-C ,  6-C ) :   0.8712 B(  0-C ,  9-H ) :   0.9086
B(  0-C , 10-H ) :   0.9078 B(  1-C ,  2-C ) :   0.9224 B(  1-C ,  6-C ) :   0.8589
B(  1-C ,  8-O ) :   1.0197 B(  2-C ,  3-O ) :   0.8573 B(  2-C , 11-H ) :   0.9202
B(  2-C , 12-H ) :   0.9310 B(  3-O ,  4-C ) :   1.0836 B(  4-C ,  5-N ) :   1.7742
B(  4-C , 13-H ) :   0.9280 B(  5-N ,  6-C ) :   1.0106 B(  6-C ,  7-C ) :   0.9571
B(  7-C ,  8-O ) :   0.9182 B(  7-C , 14-H ) :   0.9053 B(  7-C , 15-H ) :   0.9163

MP2 TOTAL ENERGY:     -437.108552252 Eh
FINAL SINGLE POINT ENERGY      -437.108552251925

DIPOLE MOMENT
-------------
                                X             Y             Z
Electronic contribution:      0.29162      -1.03314       1.28695
Nuclear contribution   :     -0.10811       1.28826      -1.11599
                        -----------------------------------------
Total Dipole Moment    :      0.18350       0.25511       0.17096
                        -----------------------------------------
Magnitude (a.u.)       :      0.35774
Magnitude (Debye)      :      0.90931

                             ****ORCA TERMINATED NORMALLY****
TOTAL RUN TIME: 0 days 0 hours 15 minutes 21 seconds 342 msec
