                         Program Version 3.0.3 - RELEASE   -
|  1> ! RI-MP2 RIJK def2-TZVP def2-TZVP/C def2-TZVP/JK TIGHTSCF
|  2> % maxcore 2000
|  3> % mp2 density relaxed end
|  4> *xyz 0 1
|  5>  C       -0.0747286524     1.5463121778     0.0716484941
|  6>  C        1.4055964438     1.9764236753    -0.0657662152
|  7>  O        1.9625115241     1.6308555381    -1.4560176349
|  8>  C        1.6475572986     0.3162544786    -1.2660843420
|  9>  N        0.4506978068    -0.1074127158    -1.4580275610
| 10>  C        0.0200331070    -0.0191585967    -0.0232344883
| 11>  C        1.2833707575    -0.3020841519     0.8394679749
| 12>  C        2.1247552705     0.9463355110     0.8292595135
| 13>  N        2.3936830802    -0.1641758454    -0.1018975867
| 14>  H       -0.4077779322     1.8451644118     1.0752109411
| 15>  H       -0.7263925723     1.9802015476    -0.6882838346
| 16>  H        1.6257796751     3.0305547857     0.0740000918
| 17>  H       -0.8835124811    -0.5760203388     0.2224072501
| 18>  H        1.3298056653    -1.0722090867     1.6003046401
| 19>  H        2.8759532191     1.2150552195     1.5629968171
| 20> *
| 21>
| 22>                          ****END OF INPUT****

CARTESIAN COORDINATES (ANGSTROEM)
---------------------------------
  C     -0.074729    1.546312    0.071648
  C      1.405596    1.976424   -0.065766
  O      1.962512    1.630856   -1.456018
  C      1.647557    0.316254   -1.266084
  N      0.450698   -0.107413   -1.458028
  C      0.020033   -0.019159   -0.023234
  C      1.283371   -0.302084    0.839468
  C      2.124755    0.946336    0.829260
  N      2.393683   -0.164176   -0.101898
  H     -0.407778    1.845164    1.075211
  H     -0.726393    1.980202   -0.688284
  H      1.625780    3.030555    0.074000
  H     -0.883512   -0.576020    0.222407
  H      1.329806   -1.072209    1.600305
  H      2.875953    1.215055    1.562997

 Total Charge           Charge          ....    0
 Multiplicity           Mult            ....    1
 Number of Electrons    NEL             ....   64
 Basis Dimension        Dim             ....  315

ORBITAL ENERGIES
----------------

  NO   OCC          E(Eh)            E(eV)
   0   2.0000     -20.600713      -560.5739
   1   2.0000     -15.591959      -424.2788
   2   2.0000     -15.528160      -422.5427
   3   2.0000     -11.385435      -309.8134
   4   2.0000     -11.330283      -308.3127
   5   2.0000     -11.297108      -307.4099
   6   2.0000     -11.292165      -307.2754
   7   2.0000     -11.290398      -307.2273
   8   2.0000     -11.252454      -306.1948
   9   2.0000      -1.456261       -39.6269
  10   2.0000      -1.317617       -35.8542
  11   2.0000      -1.208888       -32.8955
  12   2.0000      -1.091825       -29.7101
  13   2.0000      -0.959205       -26.1013
  14   2.0000      -0.916833       -24.9483
  15   2.0000      -0.830524       -22.5997
  16   2.0000      -0.814210       -22.1558
  17   2.0000      -0.787418       -21.4267
  18   2.0000      -0.731510       -19.9054
  19   2.0000      -0.668817       -18.1994
  20   2.0000      -0.630772       -17.1642
  21   2.0000      -0.615286       -16.7428
  22   2.0000      -0.590156       -16.0589
  23   2.0000      -0.576476       -15.6867
  24   2.0000      -0.547047       -14.8859
  25   2.0000      -0.542254       -14.7555
  26   2.0000      -0.502972       -13.6866
  27   2.0000      -0.492846       -13.4110
  28   2.0000      -0.478324       -13.0158
  29   2.0000      -0.461723       -12.5641
  30   2.0000      -0.397892       -10.8272
  31   2.0000      -0.347813        -9.4645
  32   0.0000       0.084624         2.3027
  33   0.0000       0.137858         3.7513
  34   0.0000       0.161679         4.3995
  35   0.0000       0.165233         4.4962
  36   0.0000       0.182090         4.9549

MULLIKEN ATOMIC CHARGES
-----------------------
   0 C :   -0.284407
   1 C :    0.099119
   2 O :   -0.278340
   3 C :    0.180618
   4 N :   -0.239986
   5 C :    0.107819
   6 C :   -0.158096
   7 C :   -0.125786
   8 N :   -0.173300
   9 H :    0.132653
  10 H :    0.144220
  11 H :    0.160311
  12 H :    0.139957
  13 H :    0.146978
  14 H :    0.148239
Sum of atomic charges:   -0.0000000

LOEWDIN ATOMIC CHARGES
----------------------
   0 C :   -0.196959
   1 C :   -0.175486
   2 O :    0.207173
   3 C :   -0.406922
   4 N :    0.116357
   5 C :   -0.218013
   6 C :   -0.183949
   7 C :   -0.188016
   8 N :    0.172485
   9 H :    0.155431
  10 H :    0.146392
  11 H :    0.150638
  12 H :    0.141518
  13 H :    0.140012
  14 H :    0.139339

  Mayer bond orders larger than 0.1
B(  0-C ,  1-C ) :   0.9646 B(  0-C ,  5-C ) :   0.8984 B(  0-C ,  9-H ) :   0.9026
B(  0-C , 10-H ) :   0.9113 B(  1-C ,  2-O ) :   0.7808 B(  1-C ,  7-C ) :   0.8948
B(  1-C , 11-H ) :   0.9114 B(  2-O ,  3-C ) :   1.1126 B(  3-C ,  4-N ) :   1.8631
B(  3-C ,  8-N ) :   1.0142 B(  4-N ,  5-C ) :   0.9414 B(  5-C ,  6-C ) :   0.9031
B(  5-C , 12-H ) :   0.9148 B(  6-C ,  7-C ) :   0.9663 B(  6-C ,  8-N ) :   0.8819
B(  6-C , 13-H ) :   0.9087 B(  7-C ,  8-N ) :   0.8877 B(  7-C , 14-H ) :   0.9113

MP2 TOTAL ENERGY:     -416.004747442 Eh
FINAL SINGLE POINT ENERGY      -416.004747441627

DIPOLE MOMENT
-------------
                                X             Y             Z
Electronic contribution:      2.95011      -1.65319      -3.71410
Nuclear contribution   :     -3.41686       2.23384       5.27523
                        -----------------------------------------
Total Dipole Moment    :     -0.46675       0.58065       1.56112
                        -----------------------------------------
Magnitude (a.u.)       :      1.72977
Magnitude (Debye)      :      4.39674

                             ****ORCA TERMINATED NORMALLY****
TOTAL RUN TIME: 0 days 0 hours 21 minutes 3 seconds 449 msec
