                         Program Version 3.0.3 - RELEASE   -
|  1> ! RI-MP2 RIJK def2-TZVP def2-TZVP/C def2-TZVP/JK TIGHTSCF
|  2> % maxcore 2000
|  3> % mp2 density relaxed end
|  4> *xyz 0 1
|  5>  O        0.0474223172     1.4441755733    -0.1286962625
|  6>  C        0.0553214101     0.0667143514    -0.0052995737
|  7>  C        0.2823006237    -0.6235109143     1.3994373039
|  8>  O        1.2007227347    -0.6758658870     2.1552652375
|  9>  C       -1.0746427519    -1.3038360576     1.3217659774
| 10>  N       -2.0242113390    -0.1630442228     1.1410956482
| 11>  C       -1.3058281242    -0.6828965140    -0.0384380521
| 12>  C       -1.9731318140    -1.2575605211    -1.1567104552
| 13>  N       -2.5076287482    -1.7107348834    -2.0777682843
| 14>  H       -0.6107528750     1.7831638516     0.4923639923
| 15>  H        0.7686937678    -0.3410421983    -0.7281748121
| 16>  H       -1.4104639852    -2.2607787456     1.6992272338
| 17>  H       -2.9694242462    -0.5463442322     1.1502386270
| 18> *
| 19>
| 20>                          ****END OF INPUT****

CARTESIAN COORDINATES (ANGSTROEM)
---------------------------------
  O      0.047422    1.444176   -0.128696
  C      0.055321    0.066714   -0.005300
  C      0.282301   -0.623511    1.399437
  O      1.200723   -0.675866    2.155265
  C     -1.074643   -1.303836    1.321766
  N     -2.024211   -0.163044    1.141096
  C     -1.305828   -0.682897   -0.038438
  C     -1.973132   -1.257561   -1.156710
  N     -2.507629   -1.710735   -2.077768
  H     -0.610753    1.783164    0.492364
  H      0.768694   -0.341042   -0.728175
  H     -1.410464   -2.260779    1.699227
  H     -2.969424   -0.546344    1.150239

 Total Charge           Charge          ....    0
 Multiplicity           Mult            ....    1
 Number of Electrons    NEL             ....   64
 Basis Dimension        Dim             ....  303

ORBITAL ENERGIES
----------------

  NO   OCC          E(Eh)            E(eV)
   0   2.0000     -20.597764      -560.4937
   1   2.0000     -20.591731      -560.3295
   2   2.0000     -15.638926      -425.5568
   3   2.0000     -15.606274      -424.6683
   4   2.0000     -11.372531      -309.4623
   5   2.0000     -11.351382      -308.8868
   6   2.0000     -11.344217      -308.6918
   7   2.0000     -11.332222      -308.3654
   8   2.0000     -11.307222      -307.6852
   9   2.0000      -1.439705       -39.1764
  10   2.0000      -1.412495       -38.4359
  11   2.0000      -1.347784       -36.6751
  12   2.0000      -1.246466       -33.9181
  13   2.0000      -1.079805       -29.3830
  14   2.0000      -0.975871       -26.5548
  15   2.0000      -0.921849       -25.0848
  16   2.0000      -0.820055       -22.3148
  17   2.0000      -0.777137       -21.1470
  18   2.0000      -0.710531       -19.3345
  19   2.0000      -0.698517       -19.0076
  20   2.0000      -0.668339       -18.1864
  21   2.0000      -0.658318       -17.9137
  22   2.0000      -0.616912       -16.7870
  23   2.0000      -0.587515       -15.9871
  24   2.0000      -0.578687       -15.7469
  25   2.0000      -0.576018       -15.6743
  26   2.0000      -0.546458       -14.8699
  27   2.0000      -0.533873       -14.5274
  28   2.0000      -0.516349       -14.0506
  29   2.0000      -0.477935       -13.0053
  30   2.0000      -0.441403       -12.0112
  31   2.0000      -0.409728       -11.1493
  32   0.0000       0.082870         2.2550
  33   0.0000       0.117844         3.2067
  34   0.0000       0.125509         3.4153
  35   0.0000       0.136214         3.7066
  36   0.0000       0.167890         4.5685

MULLIKEN ATOMIC CHARGES
-----------------------
   0 O :   -0.435194
   1 C :    0.167786
   2 C :    0.099716
   3 O :   -0.215947
   4 C :   -0.023898
   5 N :   -0.361092
   6 C :    0.121865
   7 C :   -0.235592
   8 N :   -0.033529
   9 H :    0.340205
  10 H :    0.144445
  11 H :    0.183623
  12 H :    0.247611
Sum of atomic charges:    0.0000000

LOEWDIN ATOMIC CHARGES
----------------------
   0 O :    0.029629
   1 C :   -0.253136
   2 C :   -0.275223
   3 O :    0.199686
   4 C :   -0.137870
   5 N :    0.058742
   6 C :   -0.242315
   7 C :   -0.160106
   8 N :    0.092315
   9 H :    0.192045
  10 H :    0.162508
  11 H :    0.145863
  12 H :    0.187863

  Mayer bond orders larger than 0.1
B(  0-O ,  1-C ) :   1.0172 B(  0-O ,  9-H ) :   0.8197 B(  1-C ,  2-C ) :   0.8699
B(  1-C ,  4-C ) :  -0.1147 B(  1-C ,  6-C ) :   0.8824 B(  1-C , 10-H ) :   0.9120
B(  2-C ,  3-O ) :   2.0499 B(  2-C ,  4-C ) :   0.8786 B(  4-C ,  5-N ) :   0.8794
B(  4-C ,  6-C ) :   0.8281 B(  4-C , 11-H ) :   0.8821 B(  5-N ,  6-C ) :   1.0063
B(  5-N , 12-H ) :   0.8655 B(  6-C ,  7-C ) :   0.8684 B(  7-C ,  8-N ) :   2.8385

MP2 TOTAL ENERGY:     -451.976685927 Eh
FINAL SINGLE POINT ENERGY      -451.976685927201

DIPOLE MOMENT
-------------
                                X             Y             Z
Electronic contribution:      0.41911      -0.85042      -0.50203
Nuclear contribution   :     -1.03302       0.58453       1.24800
                        -----------------------------------------
Total Dipole Moment    :     -0.61391      -0.26589       0.74596
                        -----------------------------------------
Magnitude (a.u.)       :      1.00202
Magnitude (Debye)      :      2.54692

                             ****ORCA TERMINATED NORMALLY****
TOTAL RUN TIME: 0 days 0 hours 13 minutes 50 seconds 63 msec
