                         Program Version 3.0.3 - RELEASE   -
|  1> ! RI-MP2 RIJK def2-TZVP def2-TZVP/C def2-TZVP/JK TIGHTSCF
|  2> % maxcore 2000
|  3> % mp2 density relaxed end
|  4> *xyz 0 1
|  5>  C        0.0847029821     1.5209906695     0.0819513306
|  6>  C        0.0040158167     0.0264157746     0.0435294951
|  7>  C       -1.0913032705    -0.7463536862    -0.0460220799
|  8>  C       -2.5238577616    -0.3195213476    -0.1313847663
|  9>  C       -0.7468759615    -2.2166776993    -0.0556328719
| 10>  C        0.7820037842    -2.2442207735     0.0446194636
| 11>  O        1.4741226871    -3.2279446681     0.0682347465
| 12>  C        1.2706332193    -0.7932466144     0.1093202070
| 13>  H        0.6916579745     1.9016023708    -0.7498478728
| 14>  H       -0.8953897256     1.9995135705     0.0275611517
| 15>  H        0.5755064905     1.8628477329     1.0025027209
| 16>  H       -2.9902136402    -0.6960324913    -1.0511141648
| 17>  H       -3.1062586242    -0.7351575963     0.7012262042
| 18>  H       -2.6441152335     0.7657454406    -0.1150457722
| 19>  H       -1.1892229091    -2.7752950573     0.7811177880
| 20>  H       -1.0740425835    -2.7370006103    -0.9667110085
| 21>  H        1.9654151385    -0.5925400890    -0.7182339747
| 22>  H        1.8494013067    -0.6314855558     1.0295045532
| 23> *
| 24>
| 25>                          ****END OF INPUT****

CARTESIAN COORDINATES (ANGSTROEM)
---------------------------------
  C      0.084703    1.520991    0.081951
  C      0.004016    0.026416    0.043529
  C     -1.091303   -0.746354   -0.046022
  C     -2.523858   -0.319521   -0.131385
  C     -0.746876   -2.216678   -0.055633
  C      0.782004   -2.244221    0.044619
  O      1.474123   -3.227945    0.068235
  C      1.270633   -0.793247    0.109320
  H      0.691658    1.901602   -0.749848
  H     -0.895390    1.999514    0.027561
  H      0.575506    1.862848    1.002503
  H     -2.990214   -0.696032   -1.051114
  H     -3.106259   -0.735158    0.701226
  H     -2.644115    0.765745   -0.115046
  H     -1.189223   -2.775295    0.781118
  H     -1.074043   -2.737001   -0.966711
  H      1.965415   -0.592540   -0.718234
  H      1.849401   -0.631486    1.029505

 Total Charge           Charge          ....    0
 Multiplicity           Mult            ....    1
 Number of Electrons    NEL             ....   60
 Basis Dimension        Dim             ....  308

ORBITAL ENERGIES
----------------

  NO   OCC          E(Eh)            E(eV)
   0   2.0000     -20.542543      -558.9910
   1   2.0000     -11.328152      -308.2547
   2   2.0000     -11.241009      -305.8834
   3   2.0000     -11.239413      -305.8400
   4   2.0000     -11.237638      -305.7917
   5   2.0000     -11.237628      -305.7914
   6   2.0000     -11.231407      -305.6221
   7   2.0000     -11.231405      -305.6221
   8   2.0000      -1.387102       -37.7450
   9   2.0000      -1.151580       -31.3361
  10   2.0000      -1.021274       -27.7903
  11   2.0000      -1.006521       -27.3888
  12   2.0000      -0.940841       -25.6016
  13   2.0000      -0.877421       -23.8758
  14   2.0000      -0.746160       -20.3041
  15   2.0000      -0.705673       -19.2024
  16   2.0000      -0.653889       -17.7932
  17   2.0000      -0.640284       -17.4230
  18   2.0000      -0.620409       -16.8822
  19   2.0000      -0.591527       -16.0963
  20   2.0000      -0.582875       -15.8608
  21   2.0000      -0.572983       -15.5917
  22   2.0000      -0.555942       -15.1279
  23   2.0000      -0.548695       -14.9308
  24   2.0000      -0.547032       -14.8855
  25   2.0000      -0.508413       -13.8346
  26   2.0000      -0.495590       -13.4857
  27   2.0000      -0.490627       -13.3506
  28   2.0000      -0.395981       -10.7752
  29   2.0000      -0.340280        -9.2595
  30   0.0000       0.123885         3.3711
  31   0.0000       0.139714         3.8018
  32   0.0000       0.149562         4.0698
  33   0.0000       0.153724         4.1830
  34   0.0000       0.163121         4.4387

MULLIKEN ATOMIC CHARGES
-----------------------
   0 C :   -0.414195
   1 C :   -0.034173
   2 C :   -0.034177
   3 C :   -0.414198
   4 C :   -0.146174
   5 C :    0.092272
   6 O :   -0.261108
   7 C :   -0.146165
   8 H :    0.141412
   9 H :    0.128810
  10 H :    0.141409
  11 H :    0.141419
  12 H :    0.141406
  13 H :    0.128812
  14 H :    0.133659
  15 H :    0.133665
  16 H :    0.133662
  17 H :    0.133663
Sum of atomic charges:   -0.0000000

LOEWDIN ATOMIC CHARGES
----------------------
   0 C :   -0.271971
   1 C :   -0.171355
   2 C :   -0.171353
   3 C :   -0.271977
   4 C :   -0.187451
   5 C :   -0.290087
   6 O :    0.150744
   7 C :   -0.187458
   8 H :    0.132662
   9 H :    0.126650
  10 H :    0.132663
  11 H :    0.132665
  12 H :    0.132667
  13 H :    0.126649
  14 H :    0.154244
  15 H :    0.154228
  16 H :    0.154234
  17 H :    0.154244

  Mayer bond orders larger than 0.1
B(  0-C ,  1-C ) :   0.8778 B(  0-C ,  8-H ) :   0.9311 B(  0-C ,  9-H ) :   0.9570
B(  0-C , 10-H ) :   0.9311 B(  1-C ,  2-C ) :   1.6457 B(  1-C ,  7-C ) :   0.9140
B(  2-C ,  3-C ) :   0.8778 B(  2-C ,  4-C ) :   0.9140 B(  3-C , 11-H ) :   0.9311
B(  3-C , 12-H ) :   0.9311 B(  3-C , 13-H ) :   0.9570 B(  4-C ,  5-C ) :   0.9211
B(  4-C ,  7-C ) :  -0.1481 B(  4-C , 14-H ) :   0.8897 B(  4-C , 15-H ) :   0.8897
B(  5-C ,  6-O ) :   2.0961 B(  5-C ,  7-C ) :   0.9211 B(  7-C , 16-H ) :   0.8897
B(  7-C , 17-H ) :   0.8897

MP2 TOTAL ENERGY:     -347.234060751 Eh
FINAL SINGLE POINT ENERGY      -347.234060751378

DIPOLE MOMENT
-------------
                                X             Y             Z
Electronic contribution:      4.82590      -6.85899       0.16615
Nuclear contribution   :     -5.52439       7.85173      -0.18995
                        -----------------------------------------
Total Dipole Moment    :     -0.69849       0.99275      -0.02380
                        -----------------------------------------
Magnitude (a.u.)       :      1.21408
Magnitude (Debye)      :      3.08595

                             ****ORCA TERMINATED NORMALLY****
TOTAL RUN TIME: 0 days 0 hours 12 minutes 48 seconds 220 msec
