                         Program Version 3.0.3 - RELEASE   -
|  1> ! RI-MP2 RIJK def2-TZVP def2-TZVP/C def2-TZVP/JK TIGHTSCF
|  2> % maxcore 2000
|  3> % mp2 density relaxed end
|  4> *xyz 0 1
|  5>  N        0.0000411452     1.5000568965    -0.0408363644
|  6>  C        0.0271424020     0.0459837764    -0.0444205048
|  7>  C        0.9831833010    -0.5199129594    -1.0113429285
|  8>  N        1.7455746790    -0.9225939264    -1.7832158330
|  9>  C       -0.0015597107    -0.6341747908     1.3459609617
| 10>  C       -1.5223598375    -0.3118595448     1.5438339136
| 11>  C       -1.8499229829    -1.7753668065     1.9025883233
| 12>  C       -0.7735798996    -1.8865209240     0.8052856358
| 13>  C       -1.3508837375    -0.6560702158     0.0246274868
| 14>  H        0.9241564900     1.8669061936     0.1715041320
| 15>  H       -0.2375156263     1.8480608490    -0.9661017723
| 16>  H        0.7799564825    -0.6238670868     2.1062525399
| 17>  H       -1.9292548597     0.6134896275     1.9440149490
| 18>  H       -1.5666782314    -2.1117872963     2.9045965571
| 19>  H       -2.8519015348    -2.1326423076     1.6460340874
| 20>  H       -0.3222935401    -2.7719271498     0.3591115279
| 21>  H       -2.1273484292    -0.6710446848    -0.7407451114
| 22> *
| 23>
| 24>                          ****END OF INPUT****

CARTESIAN COORDINATES (ANGSTROEM)
---------------------------------
  N      0.000041    1.500057   -0.040836
  C      0.027142    0.045984   -0.044421
  C      0.983183   -0.519913   -1.011343
  N      1.745575   -0.922594   -1.783216
  C     -0.001560   -0.634175    1.345961
  C     -1.522360   -0.311860    1.543834
  C     -1.849923   -1.775367    1.902588
  C     -0.773580   -1.886521    0.805286
  C     -1.350884   -0.656070    0.024627
  H      0.924156    1.866906    0.171504
  H     -0.237516    1.848061   -0.966102
  H      0.779956   -0.623867    2.106253
  H     -1.929255    0.613490    1.944015
  H     -1.566678   -2.111787    2.904597
  H     -2.851902   -2.132642    1.646034
  H     -0.322294   -2.771927    0.359112
  H     -2.127348   -0.671045   -0.740745

 Total Charge           Charge          ....    0
 Multiplicity           Mult            ....    1
 Number of Electrons    NEL             ....   64
 Basis Dimension        Dim             ....  327

ORBITAL ENERGIES
----------------

  NO   OCC          E(Eh)            E(eV)
   0   2.0000     -15.568689      -423.6456
   1   2.0000     -15.567824      -423.6220
   2   2.0000     -11.313860      -307.8658
   3   2.0000     -11.267534      -306.6052
   4   2.0000     -11.265653      -306.5540
   5   2.0000     -11.265566      -306.5516
   6   2.0000     -11.259983      -306.3997
   7   2.0000     -11.258638      -306.3631
   8   2.0000     -11.238520      -305.8157
   9   2.0000      -1.282512       -34.8989
  10   2.0000      -1.215776       -33.0829
  11   2.0000      -1.189497       -32.3678
  12   2.0000      -1.013867       -27.5887
  13   2.0000      -0.890489       -24.2314
  14   2.0000      -0.889734       -24.2109
  15   2.0000      -0.865869       -23.5615
  16   2.0000      -0.734049       -19.9745
  17   2.0000      -0.703681       -19.1481
  18   2.0000      -0.690962       -18.8020
  19   2.0000      -0.679858       -18.4999
  20   2.0000      -0.653078       -17.7712
  21   2.0000      -0.604992       -16.4627
  22   2.0000      -0.562406       -15.3038
  23   2.0000      -0.515591       -14.0299
  24   2.0000      -0.503721       -13.7070
  25   2.0000      -0.489504       -13.3201
  26   2.0000      -0.457374       -12.4458
  27   2.0000      -0.453786       -12.3481
  28   2.0000      -0.446734       -12.1563
  29   2.0000      -0.443997       -12.0818
  30   2.0000      -0.433011       -11.7828
  31   2.0000      -0.424416       -11.5489
  32   0.0000       0.121985         3.3194
  33   0.0000       0.145653         3.9634
  34   0.0000       0.152505         4.1499
  35   0.0000       0.158221         4.3054
  36   0.0000       0.191373         5.2075

MULLIKEN ATOMIC CHARGES
-----------------------
   0 N :   -0.567175
   1 C :    0.257006
   2 C :   -0.272077
   3 N :   -0.047455
   4 C :   -0.085981
   5 C :   -0.137166
   6 C :   -0.178623
   7 C :   -0.175905
   8 C :   -0.085979
   9 H :    0.240949
  10 H :    0.240949
  11 H :    0.144796
  12 H :    0.140406
  13 H :    0.117180
  14 H :    0.117180
  15 H :    0.147097
  16 H :    0.144796
Sum of atomic charges:    0.0000000

LOEWDIN ATOMIC CHARGES
----------------------
   0 N :   -0.093002
   1 C :   -0.299974
   2 C :   -0.158010
   3 N :    0.059004
   4 C :   -0.086743
   5 C :   -0.128277
   6 C :   -0.199919
   7 C :   -0.130619
   8 C :   -0.086742
   9 H :    0.164507
  10 H :    0.164507
  11 H :    0.134684
  12 H :    0.132630
  13 H :    0.129606
  14 H :    0.129606
  15 H :    0.134058
  16 H :    0.134684

  Mayer bond orders larger than 0.1
B(  0-N ,  1-C ) :   0.9205 B(  0-N ,  9-H ) :   0.8880 B(  0-N , 10-H ) :   0.8880
B(  1-C ,  2-C ) :   0.9334 B(  1-C ,  4-C ) :   0.8789 B(  1-C ,  8-C ) :   0.8789
B(  2-C ,  3-N ) :   2.8895 B(  4-C ,  5-C ) :   0.8922 B(  4-C ,  7-C ) :   0.8915
B(  4-C , 11-H ) :   0.8799 B(  5-C ,  6-C ) :   0.9282 B(  5-C ,  8-C ) :   0.8922
B(  5-C , 12-H ) :   0.8931 B(  6-C ,  7-C ) :   0.9225 B(  6-C , 13-H ) :   0.9252
B(  6-C , 14-H ) :   0.9252 B(  7-C ,  8-C ) :   0.8915 B(  7-C , 15-H ) :   0.9038
B(  8-C , 16-H ) :   0.8799

MP2 TOTAL ENERGY:     -380.129734962 Eh
FINAL SINGLE POINT ENERGY      -380.129734962256

DIPOLE MOMENT
-------------
                                X             Y             Z
Electronic contribution:      3.79750       0.07066      -3.87913
Nuclear contribution   :     -4.56324       0.32301       4.65459
                        -----------------------------------------
Total Dipole Moment    :     -0.76575       0.39366       0.77546
                        -----------------------------------------
Magnitude (a.u.)       :      1.15874
Magnitude (Debye)      :      2.94528

                             ****ORCA TERMINATED NORMALLY****
TOTAL RUN TIME: 0 days 0 hours 20 minutes 15 seconds 774 msec
