                         Program Version 3.0.3 - RELEASE   -
|  1> ! RI-MP2 RIJK def2-TZVP def2-TZVP/C def2-TZVP/JK TIGHTSCF
|  2> % maxcore 2000
|  3> % mp2 density relaxed end
|  4> *xyz 0 1
|  5>  C        0.1754600259     1.3340497794     0.1663038523
|  6>  O       -0.0069487089    -0.0523726345    -0.0123615354
|  7>  C        0.5560965196    -0.5448151330    -1.2099843009
|  8>  C        2.0460572799    -0.8749327388    -0.9766036406
|  9>  C        2.2977869948    -2.1140030682    -1.4360052058
| 10>  C        2.1522040834    -3.2708342442    -0.4423978681
| 11>  C        0.6899983978    -3.2924946231    -1.0309906111
| 12>  C        0.0443531011    -1.9472910177    -1.5474020811
| 13>  C        1.1339938316    -2.6325478661    -2.3013920374
| 14>  H        1.2398775192     1.6075762371     0.2246200405
| 15>  H       -0.2803753284     1.9103100509    -0.6539263694
| 16>  H       -0.3098626098     1.6075538525     1.1062554014
| 17>  H        0.3164675140     0.1475721519    -2.0358561125
| 18>  H        2.5091440246    -0.4795298228    -0.0763943346
| 19>  H        2.6435547016    -4.2158797116    -0.7017637834
| 20>  H        2.3087921150    -3.0375298639     0.6143077778
| 21>  H        0.0293605490    -4.1521751654    -0.9458732285
| 22>  H       -0.9946956825    -2.0701109720    -1.8471901570
| 23>  H        1.1462006019    -2.9873598406    -3.3228920661
| 24> *
| 25>
| 26>                          ****END OF INPUT****

CARTESIAN COORDINATES (ANGSTROEM)
---------------------------------
  C      0.175460    1.334050    0.166304
  O     -0.006949   -0.052373   -0.012362
  C      0.556097   -0.544815   -1.209984
  C      2.046057   -0.874933   -0.976604
  C      2.297787   -2.114003   -1.436005
  C      2.152204   -3.270834   -0.442398
  C      0.689998   -3.292495   -1.030991
  C      0.044353   -1.947291   -1.547402
  C      1.133994   -2.632548   -2.301392
  H      1.239878    1.607576    0.224620
  H     -0.280375    1.910310   -0.653926
  H     -0.309863    1.607554    1.106255
  H      0.316468    0.147572   -2.035856
  H      2.509144   -0.479530   -0.076394
  H      2.643555   -4.215880   -0.701764
  H      2.308792   -3.037530    0.614308
  H      0.029361   -4.152175   -0.945873
  H     -0.994696   -2.070111   -1.847190
  H      1.146201   -2.987360   -3.322892

 Total Charge           Charge          ....    0
 Multiplicity           Mult            ....    1
 Number of Electrons    NEL             ....   66
 Basis Dimension        Dim             ....  339

ORBITAL ENERGIES
----------------

  NO   OCC          E(Eh)            E(eV)
   0   2.0000     -20.558040      -559.4127
   1   2.0000     -11.294471      -307.3382
   2   2.0000     -11.272016      -306.7271
   3   2.0000     -11.250923      -306.1532
   4   2.0000     -11.248977      -306.1002
   5   2.0000     -11.243961      -305.9637
   6   2.0000     -11.237242      -305.7809
   7   2.0000     -11.229242      -305.5632
   8   2.0000     -11.225680      -305.4663
   9   2.0000      -1.380522       -37.5659
  10   2.0000      -1.222539       -33.2670
  11   2.0000      -1.025676       -27.9101
  12   2.0000      -1.007979       -27.4285
  13   2.0000      -0.932593       -25.3771
  14   2.0000      -0.865028       -23.5386
  15   2.0000      -0.802465       -21.8362
  16   2.0000      -0.771127       -20.9834
  17   2.0000      -0.718744       -19.5580
  18   2.0000      -0.679768       -18.4974
  19   2.0000      -0.658303       -17.9133
  20   2.0000      -0.643250       -17.5037
  21   2.0000      -0.614783       -16.7291
  22   2.0000      -0.604999       -16.4629
  23   2.0000      -0.575105       -15.6494
  24   2.0000      -0.546830       -14.8800
  25   2.0000      -0.520342       -14.1592
  26   2.0000      -0.484904       -13.1949
  27   2.0000      -0.480360       -13.0712
  28   2.0000      -0.471963       -12.8428
  29   2.0000      -0.430762       -11.7216
  30   2.0000      -0.408192       -11.1075
  31   2.0000      -0.391549       -10.6546
  32   2.0000      -0.314820        -8.5667
  33   0.0000       0.100877         2.7450
  34   0.0000       0.147480         4.0131
  35   0.0000       0.160328         4.3627
  36   0.0000       0.172453         4.6927
  37   0.0000       0.184305         5.0152

MULLIKEN ATOMIC CHARGES
-----------------------
   0 C :   -0.231914
   1 O :   -0.298411
   2 C :    0.142908
   3 C :   -0.243643
   4 C :    0.077961
   5 C :   -0.200318
   6 C :   -0.147882
   7 C :   -0.135198
   8 C :   -0.163736
   9 H :    0.114664
  10 H :    0.116548
  11 H :    0.142946
  12 H :    0.075402
  13 H :    0.123336
  14 H :    0.117100
  15 H :    0.115632
  16 H :    0.127899
  17 H :    0.120239
  18 H :    0.146466
Sum of atomic charges:    0.0000000

LOEWDIN ATOMIC CHARGES
----------------------
   0 C :   -0.356742
   1 O :    0.167401
   2 C :   -0.286163
   3 C :   -0.109019
   4 C :   -0.130850
   5 C :   -0.165151
   6 C :   -0.133301
   7 C :   -0.138110
   8 C :   -0.135399
   9 H :    0.102901
  10 H :    0.102477
  11 H :    0.114301
  12 H :    0.136780
  13 H :    0.140586
  14 H :    0.136845
  15 H :    0.127675
  16 H :    0.138391
  17 H :    0.149672
  18 H :    0.137706

  Mayer bond orders larger than 0.1
B(  0-C ,  1-O ) :   0.9130 B(  0-C ,  9-H ) :   0.9314 B(  0-C , 10-H ) :   0.9372
B(  0-C , 11-H ) :   0.9403 B(  1-O ,  2-C ) :   0.9542 B(  2-C ,  3-C ) :   0.9403
B(  2-C ,  7-C ) :   0.9377 B(  2-C , 12-H ) :   0.8952 B(  3-C ,  4-C ) :   1.6957
B(  3-C , 13-H ) :   0.9144 B(  4-C ,  5-C ) :   0.9305 B(  4-C ,  8-C ) :   0.8755
B(  5-C ,  6-C ) :   0.9030 B(  5-C , 14-H ) :   0.9131 B(  5-C , 15-H ) :   0.9189
B(  6-C ,  7-C ) :   0.8644 B(  6-C ,  8-C ) :   0.8670 B(  6-C , 16-H ) :   0.9116
B(  7-C ,  8-C ) :   0.8785 B(  7-C , 17-H ) :   0.9194 B(  8-C , 18-H ) :   0.9034

MP2 TOTAL ENERGY:     -385.089715102 Eh
FINAL SINGLE POINT ENERGY      -385.089715102229

DIPOLE MOMENT
-------------
                                X             Y             Z
Electronic contribution:      0.80682      -2.29155      -1.64942
Nuclear contribution   :     -0.98586       2.34690       1.55065
                        -----------------------------------------
Total Dipole Moment    :     -0.17904       0.05535      -0.09876
                        -----------------------------------------
Magnitude (a.u.)       :      0.21183
Magnitude (Debye)      :      0.53844

                             ****ORCA TERMINATED NORMALLY****
TOTAL RUN TIME: 0 days 0 hours 30 minutes 11 seconds 779 msec
