                         Program Version 3.0.3 - RELEASE   -
|  1> ! RI-MP2 RIJK def2-TZVP def2-TZVP/C def2-TZVP/JK TIGHTSCF
|  2> % maxcore 2000
|  3> % mp2 density relaxed end
|  4> *xyz 0 1
|  5>  C       -0.0417346261     1.4914830422    -0.0512311745
|  6>  C        0.0544475763    -0.0082656147    -0.0317212407
|  7>  C        0.6661700665    -0.9626342974    -1.1505915602
|  8>  C        0.1858217622    -1.9053040768    -0.0270176251
|  9>  N       -0.0252677490    -3.2367359170     0.5993207903
| 10>  C       -0.5775568456    -2.8174204728     1.6745524533
| 11>  N       -0.7318199791    -1.3232870534     1.7744632604
| 12>  C        0.5952589456    -0.9323995120     1.0896042635
| 13>  C       -1.0497354112    -1.0483283400     0.2890904302
| 14>  H        0.9494162285     1.9509779193    -0.1290033572
| 15>  H       -0.6376634454     1.8391404394    -0.9018578570
| 16>  H       -0.5142818308     1.8563538616     0.8663651914
| 17>  H        0.1274977317    -1.0004955824    -2.1014183935
| 18>  H        1.7446058586    -0.8865687348    -1.3144947684
| 19>  H       -0.9266720494    -3.4491324660     2.4832058023
| 20>  H        1.5411823692    -0.8894482972     1.6322664966
| 21>  H       -2.0575073620    -1.1430576482    -0.1189784513
| 22> *
| 23>
| 24>                          ****END OF INPUT****

CARTESIAN COORDINATES (ANGSTROEM)
---------------------------------
  C     -0.041735    1.491483   -0.051231
  C      0.054448   -0.008266   -0.031721
  C      0.666170   -0.962634   -1.150592
  C      0.185822   -1.905304   -0.027018
  N     -0.025268   -3.236736    0.599321
  C     -0.577557   -2.817420    1.674552
  N     -0.731820   -1.323287    1.774463
  C      0.595259   -0.932400    1.089604
  C     -1.049735   -1.048328    0.289090
  H      0.949416    1.950978   -0.129003
  H     -0.637663    1.839140   -0.901858
  H     -0.514282    1.856354    0.866365
  H      0.127498   -1.000496   -2.101418
  H      1.744606   -0.886569   -1.314495
  H     -0.926672   -3.449132    2.483206
  H      1.541182   -0.889448    1.632266
  H     -2.057507   -1.143058   -0.118978

 Total Charge           Charge          ....    0
 Multiplicity           Mult            ....    1
 Number of Electrons    NEL             ....   64
 Basis Dimension        Dim             ....  327

ORBITAL ENERGIES
----------------

  NO   OCC          E(Eh)            E(eV)
   0   2.0000     -15.575274      -423.8248
   1   2.0000     -15.566939      -423.5979
   2   2.0000     -11.303178      -307.5751
   3   2.0000     -11.280649      -306.9621
   4   2.0000     -11.276915      -306.8604
   5   2.0000     -11.276879      -306.8595
   6   2.0000     -11.269031      -306.6459
   7   2.0000     -11.254126      -306.2403
   8   2.0000     -11.229112      -305.5597
   9   2.0000      -1.356345       -36.9080
  10   2.0000      -1.200100       -32.6564
  11   2.0000      -1.108663       -30.1682
  12   2.0000      -0.996009       -27.1028
  13   2.0000      -0.909312       -24.7436
  14   2.0000      -0.895852       -24.3774
  15   2.0000      -0.837250       -22.7827
  16   2.0000      -0.754819       -20.5397
  17   2.0000      -0.710990       -19.3470
  18   2.0000      -0.666031       -18.1236
  19   2.0000      -0.641647       -17.4601
  20   2.0000      -0.626292       -17.0423
  21   2.0000      -0.589552       -16.0425
  22   2.0000      -0.580464       -15.7952
  23   2.0000      -0.567935       -15.4543
  24   2.0000      -0.541074       -14.7234
  25   2.0000      -0.494213       -13.4482
  26   2.0000      -0.486410       -13.2359
  27   2.0000      -0.458129       -12.4663
  28   2.0000      -0.437114       -11.8945
  29   2.0000      -0.424827       -11.5601
  30   2.0000      -0.376320       -10.2402
  31   2.0000      -0.374540       -10.1918
  32   0.0000       0.124654         3.3920
  33   0.0000       0.130833         3.5602
  34   0.0000       0.161786         4.4024
  35   0.0000       0.175342         4.7713
  36   0.0000       0.179186         4.8759

MULLIKEN ATOMIC CHARGES
-----------------------
   0 C :   -0.412165
   1 C :   -0.059702
   2 C :   -0.178784
   3 C :    0.002270
   4 N :   -0.183818
   5 C :    0.005921
   6 N :   -0.267880
   7 C :    0.008020
   8 C :    0.008050
   9 H :    0.137758
  10 H :    0.137759
  11 H :    0.154038
  12 H :    0.123349
  13 H :    0.123351
  14 H :    0.143896
  15 H :    0.128963
  16 H :    0.128974
Sum of atomic charges:   -0.0000000

LOEWDIN ATOMIC CHARGES
----------------------
   0 C :   -0.277222
   1 C :   -0.182203
   2 C :   -0.141938
   3 C :   -0.224652
   4 N :    0.126436
   5 C :   -0.239896
   6 N :    0.097897
   7 C :   -0.108285
   8 C :   -0.108264
   9 H :    0.130523
  10 H :    0.130522
  11 H :    0.137370
  12 H :    0.132057
  13 H :    0.132057
  14 H :    0.129035
  15 H :    0.133281
  16 H :    0.133281

  Mayer bond orders larger than 0.1
B(  0-C ,  1-C ) :   0.8181 B(  0-C ,  9-H ) :   0.9395 B(  0-C , 10-H ) :   0.9395
B(  0-C , 11-H ) :   0.9434 B(  1-C ,  2-C ) :   0.8933 B(  1-C ,  7-C ) :   0.8638
B(  1-C ,  8-C ) :   0.8638 B(  2-C ,  3-C ) :   0.9297 B(  2-C , 12-H ) :   0.9160
B(  2-C , 13-H ) :   0.9160 B(  3-C ,  4-N ) :   1.0149 B(  3-C ,  7-C ) :   0.9032
B(  3-C ,  8-C ) :   0.9032 B(  4-N ,  5-C ) :   1.8267 B(  5-C ,  6-N ) :   0.9466
B(  5-C , 14-H ) :   0.9271 B(  6-N ,  7-C ) :   0.8699 B(  6-N ,  8-C ) :   0.8698
B(  7-C , 15-H ) :   0.8859 B(  8-C , 16-H ) :   0.8859

MP2 TOTAL ENERGY:     -380.059609829 Eh
FINAL SINGLE POINT ENERGY      -380.059609829241

DIPOLE MOMENT
-------------
                                X             Y             Z
Electronic contribution:     -0.84937      -6.34308       2.66404
Nuclear contribution   :      0.98322       7.10889      -3.04972
                        -----------------------------------------
Total Dipole Moment    :      0.13385       0.76581      -0.38568
                        -----------------------------------------
Magnitude (a.u.)       :      0.86783
Magnitude (Debye)      :      2.20585

                             ****ORCA TERMINATED NORMALLY****
TOTAL RUN TIME: 0 days 0 hours 20 minutes 16 seconds 973 msec
