                         Program Version 3.0.3 - RELEASE   -
|  1> ! RI-MP2 RIJK def2-TZVP def2-TZVP/C def2-TZVP/JK TIGHTSCF
|  2> % maxcore 2000
|  3> % mp2 density relaxed end
|  4> *xyz 0 1
|  5>  C        0.4250222319     1.4138937626    -0.7847708030
|  6>  C       -0.0619746060     0.1559113955    -0.1104455389
|  7>  N        0.8967218404    -0.9289115030     0.0677793929
|  8>  C        0.3630231145    -0.2707595723     1.2703567407
|  9>  C        1.3345475586     0.5305174703     2.0885987779
| 10>  O        2.3499792456     1.0328042472     1.6558531737
| 11>  N        0.9446955544     0.6745194533     3.4126295743
| 12>  C        1.6609300108     1.4000471257     4.3504731688
| 13>  N        1.2378798409     1.4889767511     5.5451921865
| 14>  H        1.4415450998     1.6475427173    -0.4679674576
| 15>  H        0.4150743868     1.2792580210    -1.8715490760
| 16>  H       -0.2293777854     2.2583509800    -0.5436019390
| 17>  H       -1.0868484940    -0.1260360698    -0.3539936386
| 18>  H        0.4569128023    -1.8378622950    -0.0473700178
| 19>  H       -0.3874094725    -0.8070771192     1.8490991621
| 20>  H        0.0946563484     0.2428601302     3.7462536991
| 21>  H        2.5652726392     1.8388350323     3.9253299242
| 22>  H        1.8761533645     2.0525263828     6.1037416108
| 23> *
| 24>
| 25>                          ****END OF INPUT****

CARTESIAN COORDINATES (ANGSTROEM)
---------------------------------
  C      0.425022    1.413894   -0.784771
  C     -0.061975    0.155911   -0.110446
  N      0.896722   -0.928912    0.067779
  C      0.363023   -0.270760    1.270357
  C      1.334548    0.530517    2.088599
  O      2.349979    1.032804    1.655853
  N      0.944696    0.674519    3.412630
  C      1.660930    1.400047    4.350473
  N      1.237880    1.488977    5.545192
  H      1.441545    1.647543   -0.467967
  H      0.415074    1.279258   -1.871549
  H     -0.229378    2.258351   -0.543602
  H     -1.086848   -0.126036   -0.353994
  H      0.456913   -1.837862   -0.047370
  H     -0.387409   -0.807077    1.849099
  H      0.094656    0.242860    3.746254
  H      2.565273    1.838835    3.925330
  H      1.876153    2.052526    6.103742

 Total Charge           Charge          ....    0
 Multiplicity           Mult            ....    1
 Number of Electrons    NEL             ....   68
 Basis Dimension        Dim             ....  333

ORBITAL ENERGIES
----------------

  NO   OCC          E(Eh)            E(eV)
   0   2.0000     -20.535246      -558.7925
   1   2.0000     -15.608953      -424.7412
   2   2.0000     -15.578911      -423.9237
   3   2.0000     -15.546740      -423.0483
   4   2.0000     -11.371017      -309.4211
   5   2.0000     -11.324532      -308.1562
   6   2.0000     -11.286686      -307.1263
   7   2.0000     -11.286015      -307.1081
   8   2.0000     -11.218681      -305.2758
   9   2.0000      -1.404850       -38.2279
  10   2.0000      -1.284488       -34.9527
  11   2.0000      -1.283570       -34.9277
  12   2.0000      -1.178353       -32.0646
  13   2.0000      -0.999033       -27.1851
  14   2.0000      -0.968902       -26.3652
  15   2.0000      -0.857999       -23.3473
  16   2.0000      -0.820631       -22.3305
  17   2.0000      -0.805455       -21.9175
  18   2.0000      -0.738342       -20.0913
  19   2.0000      -0.698424       -19.0051
  20   2.0000      -0.669502       -18.2181
  21   2.0000      -0.645519       -17.5655
  22   2.0000      -0.618077       -16.8187
  23   2.0000      -0.615243       -16.7416
  24   2.0000      -0.579472       -15.7682
  25   2.0000      -0.563433       -15.3318
  26   2.0000      -0.545819       -14.8525
  27   2.0000      -0.503583       -13.7032
  28   2.0000      -0.487832       -13.2746
  29   2.0000      -0.467961       -12.7339
  30   2.0000      -0.459706       -12.5092
  31   2.0000      -0.431430       -11.7398
  32   2.0000      -0.409561       -11.1447
  33   2.0000      -0.384845       -10.4722
  34   0.0000       0.117640         3.2012
  35   0.0000       0.121782         3.3139
  36   0.0000       0.149053         4.0559
  37   0.0000       0.154775         4.2116
  38   0.0000       0.162072         4.4102

MULLIKEN ATOMIC CHARGES
-----------------------
   0 C :   -0.410322
   1 C :    0.004447
   2 N :   -0.379375
   3 C :   -0.068499
   4 C :    0.285470
   5 O :   -0.348098
   6 N :   -0.273561
   7 C :    0.044220
   8 N :   -0.384191
   9 H :    0.182081
  10 H :    0.131171
  11 H :    0.120966
  12 H :    0.122641
  13 H :    0.224790
  14 H :    0.131854
  15 H :    0.242858
  16 H :    0.144733
  17 H :    0.228815
Sum of atomic charges:   -0.0000000

LOEWDIN ATOMIC CHARGES
----------------------
   0 C :   -0.292162
   1 C :   -0.270372
   2 N :    0.030488
   3 C :   -0.234764
   4 C :   -0.413867
   5 O :    0.118187
   6 N :    0.138016
   7 C :   -0.323647
   8 N :   -0.090694
   9 H :    0.139345
  10 H :    0.128631
  11 H :    0.126731
  12 H :    0.137911
  13 H :    0.170412
  14 H :    0.140279
  15 H :    0.196523
  16 H :    0.131899
  17 H :    0.167083

  Mayer bond orders larger than 0.1
B(  0-C ,  1-C ) :   0.9010 B(  0-C ,  9-H ) :   0.9323 B(  0-C , 10-H ) :   0.9304
B(  0-C , 11-H ) :   0.9331 B(  1-C ,  2-N ) :   0.9140 B(  1-C ,  3-C ) :   0.8781
B(  1-C , 12-H ) :   0.9246 B(  2-N ,  3-C ) :   0.9005 B(  2-N , 13-H ) :   0.8622
B(  3-C ,  4-C ) :   0.9357 B(  3-C , 14-H ) :   0.9041 B(  4-C ,  5-O ) :   1.9306
B(  4-C ,  6-N ) :   1.0699 B(  6-N ,  7-C ) :   0.9940 B(  6-N , 15-H ) :   0.8596
B(  7-C ,  8-N ) :   1.9173 B(  7-C , 16-H ) :   0.9255 B(  8-N , 17-H ) :   0.8639

MP2 TOTAL ENERGY:     -434.551864978 Eh
FINAL SINGLE POINT ENERGY      -434.551864978335

DIPOLE MOMENT
-------------
                                X             Y             Z
Electronic contribution:      2.76737      -1.21440       4.71825
Nuclear contribution   :     -3.82655       0.88605      -4.82557
                        -----------------------------------------
Total Dipole Moment    :     -1.05919      -0.32835      -0.10732
                        -----------------------------------------
Magnitude (a.u.)       :      1.11410
Magnitude (Debye)      :      2.83181

                             ****ORCA TERMINATED NORMALLY****
TOTAL RUN TIME: 0 days 0 hours 13 minutes 46 seconds 719 msec
