                         Program Version 3.0.3 - RELEASE   -
|  1> ! RI-MP2 RIJK def2-TZVP def2-TZVP/C def2-TZVP/JK TIGHTSCF
|  2> % maxcore 2000
|  3> % mp2 density relaxed end
|  4> *xyz 0 1
|  5>  O       -0.0205899984     0.0400951921     0.0045467939
|  6>  C       -0.0557999179     1.2229322902     0.0104916381
|  7>  C       -1.2853489447     2.1604875889     0.0327397647
|  8>  N       -0.6284162794     3.4405079180     0.0295108538
|  9>  N       -0.9972665971     4.7458622388     0.0412438726
| 10>  N        0.1158074987     5.4231868551     0.0291072154
| 11>  C        1.2063924736     4.5896521258     0.0090018175
| 12>  C        0.7102903200     3.3156210657     0.0097813663
| 13>  O        1.1017677986     2.0112666523    -0.0022002597
| 14>  H       -1.9066633274     1.9898000872    -0.8507401997
| 15>  H       -1.8810521538     1.9811614482     0.9320088473
| 16>  H        2.2160734080     4.9588954876    -0.0036173102
| 17> *
| 18>
| 19>                          ****END OF INPUT****

CARTESIAN COORDINATES (ANGSTROEM)
---------------------------------
  O     -0.020590    0.040095    0.004547
  C     -0.055800    1.222932    0.010492
  C     -1.285349    2.160488    0.032740
  N     -0.628416    3.440508    0.029511
  N     -0.997267    4.745862    0.041244
  N      0.115807    5.423187    0.029107
  C      1.206392    4.589652    0.009002
  C      0.710290    3.315621    0.009781
  O      1.101768    2.011267   -0.002200
  H     -1.906663    1.989800   -0.850740
  H     -1.881052    1.981161    0.932009
  H      2.216073    4.958895   -0.003617

 Total Charge           Charge          ....    0
 Multiplicity           Mult            ....    1
 Number of Electrons    NEL             ....   64
 Basis Dimension        Dim             ....  297

ORBITAL ENERGIES
----------------

  NO   OCC          E(Eh)            E(eV)
   0   2.0000     -20.671664      -562.5046
   1   2.0000     -20.602891      -560.6332
   2   2.0000     -15.678238      -426.6265
   3   2.0000     -15.660207      -426.1359
   4   2.0000     -15.623561      -425.1387
   5   2.0000     -11.441494      -311.3389
   6   2.0000     -11.371404      -309.4316
   7   2.0000     -11.346474      -308.7532
   8   2.0000     -11.276084      -306.8379
   9   2.0000      -1.536693       -41.8155
  10   2.0000      -1.461494       -39.7693
  11   2.0000      -1.429141       -38.8889
  12   2.0000      -1.252195       -34.0739
  13   2.0000      -1.102791       -30.0085
  14   2.0000      -1.061071       -28.8732
  15   2.0000      -0.893489       -24.3131
  16   2.0000      -0.879112       -23.9218
  17   2.0000      -0.836683       -22.7673
  18   2.0000      -0.751528       -20.4501
  19   2.0000      -0.743598       -20.2343
  20   2.0000      -0.715129       -19.4597
  21   2.0000      -0.701829       -19.0977
  22   2.0000      -0.651422       -17.7261
  23   2.0000      -0.638973       -17.3873
  24   2.0000      -0.632605       -17.2140
  25   2.0000      -0.619338       -16.8530
  26   2.0000      -0.546492       -14.8708
  27   2.0000      -0.536888       -14.6095
  28   2.0000      -0.502954       -13.6861
  29   2.0000      -0.459455       -12.5024
  30   2.0000      -0.426425       -11.6036
  31   2.0000      -0.370797       -10.0899
  32   0.0000       0.096123         2.6157
  33   0.0000       0.116031         3.1574
  34   0.0000       0.146512         3.9868
  35   0.0000       0.168003         4.5716
  36   0.0000       0.189194         5.1482

MULLIKEN ATOMIC CHARGES
-----------------------
   0 O :   -0.215818
   1 C :    0.259611
   2 C :   -0.169672
   3 N :    0.103859
   4 N :   -0.194393
   5 N :   -0.127787
   6 C :   -0.158079
   7 C :    0.191469
   8 O :   -0.207627
   9 H :    0.178813
  10 H :    0.178825
  11 H :    0.160799
Sum of atomic charges:   -0.0000000

LOEWDIN ATOMIC CHARGES
----------------------
   0 O :    0.198833
   1 C :   -0.395273
   2 C :   -0.185571
   3 N :    0.188067
   4 N :   -0.028263
   5 N :    0.012321
   6 C :   -0.245161
   7 C :   -0.325139
   8 O :    0.314395
   9 H :    0.161655
  10 H :    0.161660
  11 H :    0.142476

  Mayer bond orders larger than 0.1
B(  0-O ,  1-C ) :   2.0891 B(  1-C ,  2-C ) :   0.9149 B(  1-C ,  8-O ) :   0.9954
B(  2-C ,  3-N ) :   0.8858 B(  2-C ,  9-H ) :   0.8998 B(  2-C , 10-H ) :   0.8998
B(  3-N ,  4-N ) :   0.9678 B(  3-N ,  7-C ) :   1.1469 B(  4-N ,  5-N ) :   1.2846
B(  5-N ,  6-C ) :   1.3357 B(  6-C ,  7-C ) :   1.4120 B(  6-C , 11-H ) :   0.9389
B(  7-C ,  8-O ) :   1.0171

MP2 TOTAL ENERGY:     -468.064611378 Eh
FINAL SINGLE POINT ENERGY      -468.064611378262

DIPOLE MOMENT
-------------
                                X             Y             Z
Electronic contribution:      1.28686      -0.81668      -0.02275
Nuclear contribution   :     -1.50059       0.06635       0.02176
                        -----------------------------------------
Total Dipole Moment    :     -0.21373      -0.75033      -0.00098
                        -----------------------------------------
Magnitude (a.u.)       :      0.78018
Magnitude (Debye)      :      1.98306

                             ****ORCA TERMINATED NORMALLY****
TOTAL RUN TIME: 0 days 0 hours 14 minutes 33 seconds 348 msec
