                         Program Version 3.0.3 - RELEASE   -
|  1> ! RI-MP2 RIJK def2-TZVP def2-TZVP/C def2-TZVP/JK TIGHTSCF
|  2> % maxcore 2000
|  3> % mp2 density relaxed end
|  4> *xyz 0 1
|  5>  O        0.2282515116     1.1106202271     0.6359335041
|  6>  C        0.0416152703     0.0145922619    -0.2458798736
|  7>  C       -1.3730265983    -0.5130337689    -0.2364179373
|  8>  C       -2.4884020909    -0.2735076478    -1.2650983848
|  9>  C       -2.9906370653    -1.7475849176    -1.0705937377
| 10>  C       -1.9209866882    -1.9273885452    -0.0011294222
| 11>  O       -1.1736128951    -3.0764997802     0.2437594250
| 12>  C       -2.0228579836    -0.8908706013     1.0825616734
| 13>  O       -1.1429708020    -1.0695973571     2.1613275486
| 14>  H        0.0220673121     0.7693542284     1.5150895033
| 15>  H        0.2959837328     0.3764765405    -1.2477949890
| 16>  H        0.7405164832    -0.8031192470    -0.0144770158
| 17>  H       -3.2049725278     0.5135024007    -1.0093406497
| 18>  H       -2.1109540263    -0.0906903374    -2.2735860622
| 19>  H       -4.0302798519    -1.8884521730    -0.7559371031
| 20>  H       -2.7963671579    -2.3626030594    -1.9524776300
| 21>  H       -1.7624707043    -3.7474390317     0.6122751932
| 22>  H       -2.9715533651    -0.4518698216     1.3926987026
| 23>  H       -0.7414913535    -1.9431074905     2.0477228652
| 24> *
| 25>
| 26>                          ****END OF INPUT****

CARTESIAN COORDINATES (ANGSTROEM)
---------------------------------
  O      0.228252    1.110620    0.635934
  C      0.041615    0.014592   -0.245880
  C     -1.373027   -0.513034   -0.236418
  C     -2.488402   -0.273508   -1.265098
  C     -2.990637   -1.747585   -1.070594
  C     -1.920987   -1.927389   -0.001129
  O     -1.173613   -3.076500    0.243759
  C     -2.022858   -0.890871    1.082562
  O     -1.142971   -1.069597    2.161328
  H      0.022067    0.769354    1.515090
  H      0.295984    0.376477   -1.247795
  H      0.740516   -0.803119   -0.014477
  H     -3.204973    0.513502   -1.009341
  H     -2.110954   -0.090690   -2.273586
  H     -4.030280   -1.888452   -0.755937
  H     -2.796367   -2.362603   -1.952478
  H     -1.762471   -3.747439    0.612275
  H     -2.971553   -0.451870    1.392699
  H     -0.741491   -1.943107    2.047723

 Total Charge           Charge          ....    0
 Multiplicity           Mult            ....    1
 Number of Electrons    NEL             ....   70
 Basis Dimension        Dim             ....  339

ORBITAL ENERGIES
----------------

  NO   OCC          E(Eh)            E(eV)
   0   2.0000     -20.592717      -560.3563
   1   2.0000     -20.572367      -559.8026
   2   2.0000     -20.539518      -558.9087
   3   2.0000     -11.299941      -307.4870
   4   2.0000     -11.289102      -307.1921
   5   2.0000     -11.273612      -306.7706
   6   2.0000     -11.241041      -305.8843
   7   2.0000     -11.238862      -305.8250
   8   2.0000     -11.237889      -305.7985
   9   2.0000      -1.409861       -38.3643
  10   2.0000      -1.373924       -37.3864
  11   2.0000      -1.344745       -36.5924
  12   2.0000      -1.187398       -32.3107
  13   2.0000      -0.992727       -27.0135
  14   2.0000      -0.950077       -25.8529
  15   2.0000      -0.879270       -23.9262
  16   2.0000      -0.822547       -22.3827
  17   2.0000      -0.755226       -20.5508
  18   2.0000      -0.730343       -19.8737
  19   2.0000      -0.691974       -18.8296
  20   2.0000      -0.658343       -17.9144
  21   2.0000      -0.646060       -17.5802
  22   2.0000      -0.643798       -17.5186
  23   2.0000      -0.623910       -16.9775
  24   2.0000      -0.592474       -16.1220
  25   2.0000      -0.565384       -15.3849
  26   2.0000      -0.557765       -15.1776
  27   2.0000      -0.533167       -14.5082
  28   2.0000      -0.527124       -14.3438
  29   2.0000      -0.511347       -13.9145
  30   2.0000      -0.497453       -13.5364
  31   2.0000      -0.480470       -13.0742
  32   2.0000      -0.429540       -11.6884
  33   2.0000      -0.382629       -10.4119
  34   2.0000      -0.379210       -10.3188
  35   0.0000       0.118853         3.2341
  36   0.0000       0.145074         3.9477
  37   0.0000       0.159420         4.3381
  38   0.0000       0.169783         4.6200
  39   0.0000       0.190425         5.1817

MULLIKEN ATOMIC CHARGES
-----------------------
   0 O :   -0.481552
   1 C :   -0.043431
   2 C :   -0.031909
   3 C :   -0.229852
   4 C :   -0.222543
   5 C :    0.103192
   6 O :   -0.472415
   7 C :    0.022716
   8 O :   -0.490218
   9 H :    0.335459
  10 H :    0.110180
  11 H :    0.120343
  12 H :    0.127513
  13 H :    0.120441
  14 H :    0.115576
  15 H :    0.120783
  16 H :    0.335429
  17 H :    0.123581
  18 H :    0.336707
Sum of atomic charges:   -0.0000000

LOEWDIN ATOMIC CHARGES
----------------------
   0 O :   -0.048558
   1 C :   -0.310688
   2 C :   -0.182994
   3 C :   -0.179112
   4 C :   -0.196138
   5 C :   -0.316160
   6 O :    0.021448
   7 C :   -0.266959
   8 O :   -0.003245
   9 H :    0.176601
  10 H :    0.134366
  11 H :    0.126230
  12 H :    0.131782
  13 H :    0.136795
  14 H :    0.127288
  15 H :    0.139863
  16 H :    0.190062
  17 H :    0.137069
  18 H :    0.182349

  Mayer bond orders larger than 0.1
B(  0-O ,  1-C ) :   0.9144 B(  0-O ,  9-H ) :   0.8323 B(  1-C ,  2-C ) :   0.9018
B(  1-C , 10-H ) :   0.9231 B(  1-C , 11-H ) :   0.9418 B(  2-C ,  3-C ) :   0.8913
B(  2-C ,  5-C ) :   0.7645 B(  2-C ,  7-C ) :   0.8161 B(  3-C ,  4-C ) :   0.9800
B(  3-C , 12-H ) :   0.9172 B(  3-C , 13-H ) :   0.9181 B(  4-C ,  5-C ) :   0.9852
B(  4-C , 14-H ) :   0.9097 B(  4-C , 15-H ) :   0.9034 B(  5-C ,  6-O ) :   1.0056
B(  5-C ,  7-C ) :   0.9018 B(  6-O , 16-H ) :   0.8273 B(  7-C ,  8-O ) :   0.9489
B(  7-C , 17-H ) :   0.9285 B(  8-O , 18-H ) :   0.8144

MP2 TOTAL ENERGY:     -459.391191559 Eh
FINAL SINGLE POINT ENERGY      -459.391191559288

DIPOLE MOMENT
-------------
                                X             Y             Z
Electronic contribution:      1.70852      -0.97154       3.16600
Nuclear contribution   :     -2.58206      -0.21361      -3.42675
                        -----------------------------------------
Total Dipole Moment    :     -0.87354      -1.18515      -0.26075
                        -----------------------------------------
Magnitude (a.u.)       :      1.49521
Magnitude (Debye)      :      3.80051

                             ****ORCA TERMINATED NORMALLY****
TOTAL RUN TIME: 0 days 0 hours 17 minutes 16 seconds 36 msec
