                         Program Version 3.0.3 - RELEASE   -
|  1> ! RI-MP2 RIJK def2-TZVP def2-TZVP/C def2-TZVP/JK TIGHTSCF
|  2> % maxcore 2000
|  3> % mp2 density relaxed end
|  4> *xyz 0 1
|  5>  C       -0.1482003576     1.4998567877     0.0119991473
|  6>  C       -0.0056830809    -0.0076466175     0.0018648220
|  7>  O       -1.3450572950    -0.5719442232     0.0115325055
|  8>  C       -1.4092905632    -1.8997675573     0.0052972458
|  9>  O       -0.4886989049    -2.6705417495    -0.0073244671
| 10>  C       -2.8134650774    -2.3347078473     0.0162445429
| 11>  N       -3.8972009357    -2.7332139928     0.0240500072
| 12>  H        0.8448195521     1.9583298727     0.0051138969
| 13>  H       -0.6953358086     1.8474380169    -0.8681709026
| 14>  H       -0.6782562839     1.8371018268     0.9065247337
| 15>  H        0.5129343539    -0.3728668518    -0.8893325230
| 16>  H        0.5300781613    -0.3831644648     0.8785113915
| 17> *
| 18>
| 19>                          ****END OF INPUT****

CARTESIAN COORDINATES (ANGSTROEM)
---------------------------------
  C     -0.148200    1.499857    0.011999
  C     -0.005683   -0.007647    0.001865
  O     -1.345057   -0.571944    0.011533
  C     -1.409291   -1.899768    0.005297
  O     -0.488699   -2.670542   -0.007324
  C     -2.813465   -2.334708    0.016245
  N     -3.897201   -2.733214    0.024050
  H      0.844820    1.958330    0.005114
  H     -0.695336    1.847438   -0.868171
  H     -0.678256    1.837102    0.906525
  H      0.512934   -0.372867   -0.889333
  H      0.530078   -0.383164    0.878511

 Total Charge           Charge          ....    0
 Multiplicity           Mult            ....    1
 Number of Electrons    NEL             ....   52
 Basis Dimension        Dim             ....  247

ORBITAL ENERGIES
----------------

  NO   OCC          E(Eh)            E(eV)
   0   2.0000     -20.644211      -561.7575
   1   2.0000     -20.594284      -560.3989
   2   2.0000     -15.614374      -424.8887
   3   2.0000     -11.448775      -311.5370
   4   2.0000     -11.319241      -308.0122
   5   2.0000     -11.304481      -307.6106
   6   2.0000     -11.245943      -306.0177
   7   2.0000      -1.508278       -41.0423
   8   2.0000      -1.410513       -38.3820
   9   2.0000      -1.250234       -34.0206
  10   2.0000      -1.076892       -29.3037
  11   2.0000      -0.961400       -26.1610
  12   2.0000      -0.860688       -23.4205
  13   2.0000      -0.795481       -21.6461
  14   2.0000      -0.721277       -19.6269
  15   2.0000      -0.719465       -19.5776
  16   2.0000      -0.626212       -17.0401
  17   2.0000      -0.623996       -16.9798
  18   2.0000      -0.593973       -16.1628
  19   2.0000      -0.577263       -15.7081
  20   2.0000      -0.546833       -14.8801
  21   2.0000      -0.544010       -14.8033
  22   2.0000      -0.520450       -14.1622
  23   2.0000      -0.498132       -13.5549
  24   2.0000      -0.494760       -13.4631
  25   2.0000      -0.494120       -13.4457
  26   0.0000       0.075855         2.0641
  27   0.0000       0.122652         3.3375
  28   0.0000       0.159199         4.3320
  29   0.0000       0.160145         4.3578
  30   0.0000       0.180117         4.9012

MULLIKEN ATOMIC CHARGES
-----------------------
   0 C :   -0.363849
   1 C :   -0.087620
   2 O :   -0.214029
   3 C :    0.411799
   4 O :   -0.278486
   5 C :   -0.123234
   6 N :   -0.041914
   7 H :    0.138246
   8 H :    0.141758
   9 H :    0.141751
  10 H :    0.137777
  11 H :    0.137801
Sum of atomic charges:    0.0000000

LOEWDIN ATOMIC CHARGES
----------------------
   0 C :   -0.309984
   1 C :   -0.283457
   2 O :    0.280929
   3 C :   -0.496484
   4 O :    0.174058
   5 C :   -0.124391
   6 N :    0.103400
   7 H :    0.132544
   8 H :    0.128895
   9 H :    0.128895
  10 H :    0.132796
  11 H :    0.132798

  Mayer bond orders larger than 0.1
B(  0-C ,  1-C ) :   0.9469 B(  0-C ,  7-H ) :   0.9307 B(  0-C ,  8-H ) :   0.9320
B(  0-C ,  9-H ) :   0.9320 B(  1-C ,  2-O ) :   0.8051 B(  1-C , 10-H ) :   0.9321
B(  1-C , 11-H ) :   0.9321 B(  2-O ,  3-C ) :   1.1810 B(  3-C ,  4-O ) :   1.9238
B(  3-C ,  5-C ) :   0.8991 B(  5-C ,  6-N ) :   2.7964

MP2 TOTAL ENERGY:     -359.966300236 Eh
FINAL SINGLE POINT ENERGY      -359.966300235763

DIPOLE MOMENT
-------------
                                X             Y             Z
Electronic contribution:     -5.77127      -8.80948       0.00674
Nuclear contribution   :      6.91912      10.15783      -0.01031
                        -----------------------------------------
Total Dipole Moment    :      1.14785       1.34835      -0.00357
                        -----------------------------------------
Magnitude (a.u.)       :      1.77077
Magnitude (Debye)      :      4.50094

                             ****ORCA TERMINATED NORMALLY****
TOTAL RUN TIME: 0 days 0 hours 6 minutes 1 seconds 297 msec
