                         Program Version 3.0.3 - RELEASE   -
|  1> ! RI-MP2 RIJK def2-TZVP def2-TZVP/C def2-TZVP/JK TIGHTSCF
|  2> % maxcore 2000
|  3> % mp2 density relaxed end
|  4> *xyz 0 1
|  5>  O        0.1201180099     1.3645442485    -0.1229074547
|  6>  C        0.0330154800    -0.0089246288     0.1687454097
|  7>  C       -1.4046611700    -0.5219870346     0.1438624964
|  8>  O       -2.1322014120     0.0687606571     1.1604868402
|  9>  C       -3.3743562365    -0.5651392434     1.4271000221
| 10>  C       -4.4530985543    -0.1732280560     0.4238575213
| 11>  N       -4.2526052452    -0.5336423231    -0.9665533537
| 12>  C       -3.1552561062    -0.4930912960    -1.5804145022
| 13>  O       -1.8797089565    -0.2081426177    -1.1782467108
| 14>  H       -0.3744995218     1.5029711145    -0.9389608795
| 15>  H        0.6209976069    -0.6213303268    -0.5326688301
| 16>  H        0.4343526098    -0.1561221354     1.1751686216
| 17>  H       -1.4323172203    -1.6205329007     0.2444869981
| 18>  H       -3.2419467983    -1.6584351531     1.4398700578
| 19>  H       -3.6748316375    -0.2441133622     2.4291769078
| 20>  H       -5.4019520598    -0.6141103159     0.7529930850
| 21>  H       -4.5838861518     0.9170559595     0.4679972041
| 22>  H       -3.1436819064    -0.6678759658    -2.6566238230
| 23> *
| 24>
| 25>                          ****END OF INPUT****

CARTESIAN COORDINATES (ANGSTROEM)
---------------------------------
  O      0.120118    1.364544   -0.122907
  C      0.033015   -0.008925    0.168745
  C     -1.404661   -0.521987    0.143862
  O     -2.132201    0.068761    1.160487
  C     -3.374356   -0.565139    1.427100
  C     -4.453099   -0.173228    0.423858
  N     -4.252605   -0.533642   -0.966553
  C     -3.155256   -0.493091   -1.580415
  O     -1.879709   -0.208143   -1.178247
  H     -0.374500    1.502971   -0.938961
  H      0.620998   -0.621330   -0.532669
  H      0.434353   -0.156122    1.175169
  H     -1.432317   -1.620533    0.244487
  H     -3.241947   -1.658435    1.439870
  H     -3.674832   -0.244113    2.429177
  H     -5.401952   -0.614110    0.752993
  H     -4.583886    0.917056    0.467997
  H     -3.143682   -0.667876   -2.656624

 Total Charge           Charge          ....    0
 Multiplicity           Mult            ....    1
 Number of Electrons    NEL             ....   70
 Basis Dimension        Dim             ....  333

ORBITAL ENERGIES
----------------

  NO   OCC          E(Eh)            E(eV)
   0   2.0000     -20.602165      -560.6134
   1   2.0000     -20.580505      -560.0240
   2   2.0000     -20.556676      -559.3756
   3   2.0000     -15.556282      -423.3079
   4   2.0000     -11.357291      -309.0476
   5   2.0000     -11.341922      -308.6294
   6   2.0000     -11.292305      -307.2792
   7   2.0000     -11.284705      -307.0724
   8   2.0000     -11.264280      -306.5166
   9   2.0000      -1.455207       -39.5982
  10   2.0000      -1.386671       -37.7332
  11   2.0000      -1.363364       -37.0990
  12   2.0000      -1.228827       -33.4381
  13   2.0000      -1.036844       -28.2140
  14   2.0000      -1.012150       -27.5420
  15   2.0000      -0.903142       -24.5757
  16   2.0000      -0.848679       -23.0937
  17   2.0000      -0.793085       -21.5809
  18   2.0000      -0.736715       -20.0470
  19   2.0000      -0.716909       -19.5081
  20   2.0000      -0.694090       -18.8872
  21   2.0000      -0.673967       -18.3396
  22   2.0000      -0.650831       -17.7100
  23   2.0000      -0.617107       -16.7923
  24   2.0000      -0.608060       -16.5462
  25   2.0000      -0.595643       -16.2083
  26   2.0000      -0.563786       -15.3414
  27   2.0000      -0.559439       -15.2231
  28   2.0000      -0.535343       -14.5674
  29   2.0000      -0.520196       -14.1553
  30   2.0000      -0.487248       -13.2587
  31   2.0000      -0.475231       -12.9317
  32   2.0000      -0.445394       -12.1198
  33   2.0000      -0.412096       -11.2137
  34   2.0000      -0.401456       -10.9242
  35   0.0000       0.138308         3.7635
  36   0.0000       0.141787         3.8582
  37   0.0000       0.159423         4.3381
  38   0.0000       0.170997         4.6531
  39   0.0000       0.188387         5.1263

MULLIKEN ATOMIC CHARGES
-----------------------
   0 O :   -0.466855
   1 C :    0.035481
   2 C :    0.107075
   3 O :   -0.258679
   4 C :   -0.093577
   5 C :   -0.102079
   6 N :   -0.251156
   7 C :    0.056108
   8 O :   -0.281056
   9 H :    0.325451
  10 H :    0.103279
  11 H :    0.113976
  12 H :    0.080575
  13 H :    0.103439
  14 H :    0.133337
  15 H :    0.130428
  16 H :    0.128768
  17 H :    0.135486
Sum of atomic charges:    0.0000000

LOEWDIN ATOMIC CHARGES
----------------------
   0 O :   -0.031639
   1 C :   -0.329378
   2 C :   -0.409891
   3 O :    0.211652
   4 C :   -0.318214
   5 C :   -0.305526
   6 N :    0.083499
   7 C :   -0.362560
   8 O :    0.213346
   9 H :    0.177547
  10 H :    0.122878
  11 H :    0.136359
  12 H :    0.131132
  13 H :    0.123668
  14 H :    0.136170
  15 H :    0.140871
  16 H :    0.145889
  17 H :    0.134198

  Mayer bond orders larger than 0.1
B(  0-O ,  1-C ) :   0.9448 B(  0-O ,  9-H ) :   0.8313 B(  1-C ,  2-C ) :   0.9267
B(  1-C , 10-H ) :   0.9177 B(  1-C , 11-H ) :   0.9304 B(  2-C ,  3-O ) :   1.0335
B(  2-C ,  8-O ) :   0.8680 B(  2-C , 12-H ) :   0.9284 B(  3-O ,  4-C ) :   0.8859
B(  4-C ,  5-C ) :   0.9294 B(  4-C , 13-H ) :   0.9299 B(  4-C , 14-H ) :   0.9229
B(  5-C ,  6-N ) :   0.9032 B(  5-C , 15-H ) :   0.9263 B(  5-C , 16-H ) :   0.9159
B(  6-N ,  7-C ) :   1.8842 B(  7-C ,  8-O ) :   1.0358 B(  7-C , 17-H ) :   0.9292

MP2 TOTAL ENERGY:     -475.466755004 Eh
FINAL SINGLE POINT ENERGY      -475.466755003526

DIPOLE MOMENT
-------------
                                X             Y             Z
Electronic contribution:      0.57359       1.39698      -2.45013
Nuclear contribution   :     -0.73276      -2.15971       2.64033
                        -----------------------------------------
Total Dipole Moment    :     -0.15918      -0.76274       0.19020
                        -----------------------------------------
Magnitude (a.u.)       :      0.80205
Magnitude (Debye)      :      2.03864

                             ****ORCA TERMINATED NORMALLY****
TOTAL RUN TIME: 0 days 0 hours 15 minutes 59 seconds 753 msec
