                         Program Version 3.0.3 - RELEASE   -
|  1> ! RI-MP2 RIJK def2-TZVP def2-TZVP/C def2-TZVP/JK TIGHTSCF
|  2> % maxcore 2000
|  3> % mp2 density relaxed end
|  4> *xyz 0 1
|  5>  C       -0.2044746558     1.6635307703    -0.0151419033
|  6>  C        0.0177711254     0.1657393346    -0.0290019644
|  7>  O       -1.2524605256    -0.4316688330    -0.2157506892
|  8>  C        1.1117188427    -0.5145852932    -0.9079941487
|  9>  C        2.4150144058     0.1912968839    -0.5001095403
| 10>  C        2.3608531269    -0.3237150381     0.9577400693
| 11>  C        2.4226297224    -1.8391960142     0.6877915024
| 12>  N        1.0505841118    -1.7115512024     0.0904064587
| 13>  C        0.8038816996    -0.5594074989     1.0804468900
| 14>  H        0.6867602854     2.2195290181     0.2806448166
| 15>  H       -0.5256846478     2.0110389550    -1.0022091514
| 16>  H       -1.0034936700     1.8956651730     0.6949870484
| 17>  H       -1.0978606194    -1.3861417936    -0.2360479064
| 18>  H        0.9258276341    -0.7502686998    -1.9556482212
| 19>  H        3.3014068868    -0.1682877399    -1.0304501598
| 20>  H        2.3684094496     1.2752334485    -0.6135841027
| 21>  H        2.9626876304     0.1781277917     1.7162699901
| 22>  H        3.2077810187    -2.2274011416     0.0301710832
| 23>  H        2.3484618163    -2.4602649654     1.5849632080
| 24>  H        0.3756915828    -0.8076266051     2.0533328306
| 25> *
| 26>
| 27>                          ****END OF INPUT****

CARTESIAN COORDINATES (ANGSTROEM)
---------------------------------
  C     -0.204475    1.663531   -0.015142
  C      0.017771    0.165739   -0.029002
  O     -1.252461   -0.431669   -0.215751
  C      1.111719   -0.514585   -0.907994
  C      2.415014    0.191297   -0.500110
  C      2.360853   -0.323715    0.957740
  C      2.422630   -1.839196    0.687792
  N      1.050584   -1.711551    0.090406
  C      0.803882   -0.559407    1.080447
  H      0.686760    2.219529    0.280645
  H     -0.525685    2.011039   -1.002209
  H     -1.003494    1.895665    0.694987
  H     -1.097861   -1.386142   -0.236048
  H      0.925828   -0.750269   -1.955648
  H      3.301407   -0.168288   -1.030450
  H      2.368409    1.275233   -0.613584
  H      2.962688    0.178128    1.716270
  H      3.207781   -2.227401    0.030171
  H      2.348462   -2.460265    1.584963
  H      0.375692   -0.807627    2.053333

 Total Charge           Charge          ....    0
 Multiplicity           Mult            ....    1
 Number of Electrons    NEL             ....   68
 Basis Dimension        Dim             ....  345

ORBITAL ENERGIES
----------------

  NO   OCC          E(Eh)            E(eV)
   0   2.0000     -20.545752      -559.0783
   1   2.0000     -15.558475      -423.3676
   2   2.0000     -11.288246      -307.1688
   3   2.0000     -11.262428      -306.4663
   4   2.0000     -11.261285      -306.4352
   5   2.0000     -11.255482      -306.2772
   6   2.0000     -11.244977      -305.9914
   7   2.0000     -11.231401      -305.6220
   8   2.0000     -11.214929      -305.1737
   9   2.0000      -1.366809       -37.1928
  10   2.0000      -1.282203       -34.8905
  11   2.0000      -1.044801       -28.4305
  12   2.0000      -1.011098       -27.5134
  13   2.0000      -0.972974       -26.4760
  14   2.0000      -0.923428       -25.1277
  15   2.0000      -0.816239       -22.2110
  16   2.0000      -0.769842       -20.9485
  17   2.0000      -0.732212       -19.9245
  18   2.0000      -0.698459       -19.0060
  19   2.0000      -0.680513       -18.5177
  20   2.0000      -0.652610       -17.7584
  21   2.0000      -0.606294       -16.4981
  22   2.0000      -0.576340       -15.6830
  23   2.0000      -0.567691       -15.4476
  24   2.0000      -0.543787       -14.7972
  25   2.0000      -0.536259       -14.5924
  26   2.0000      -0.521529       -14.1915
  27   2.0000      -0.505399       -13.7526
  28   2.0000      -0.482718       -13.1354
  29   2.0000      -0.479830       -13.0568
  30   2.0000      -0.460566       -12.5327
  31   2.0000      -0.432807       -11.7773
  32   2.0000      -0.397698       -10.8219
  33   2.0000      -0.377587       -10.2747
  34   0.0000       0.138495         3.7686
  35   0.0000       0.154962         4.2167
  36   0.0000       0.168866         4.5951
  37   0.0000       0.170849         4.6490
  38   0.0000       0.187232         5.0948

MULLIKEN ATOMIC CHARGES
-----------------------
   0 C :   -0.419345
   1 C :    0.248292
   2 O :   -0.465061
   3 C :   -0.004182
   4 C :   -0.325325
   5 C :   -0.049037
   6 C :   -0.183787
   7 N :   -0.256460
   8 C :   -0.168180
   9 H :    0.128882
  10 H :    0.138619
  11 H :    0.143929
  12 H :    0.330156
  13 H :    0.129213
  14 H :    0.122072
  15 H :    0.135766
  16 H :    0.127022
  17 H :    0.117065
  18 H :    0.124673
  19 H :    0.125688
Sum of atomic charges:   -0.0000000

LOEWDIN ATOMIC CHARGES
----------------------
   0 C :   -0.269125
   1 C :   -0.358478
   2 O :    0.017014
   3 C :   -0.177737
   4 C :   -0.217276
   5 C :   -0.196562
   6 C :   -0.245856
   7 N :    0.100866
   8 C :   -0.156689
   9 H :    0.125118
  10 H :    0.132249
  11 H :    0.134949
  12 H :    0.182650
  13 H :    0.132935
  14 H :    0.135933
  15 H :    0.136929
  16 H :    0.131120
  17 H :    0.121719
  18 H :    0.134732
  19 H :    0.135511

  Mayer bond orders larger than 0.1
B(  0-C ,  1-C ) :   0.8868 B(  0-C ,  9-H ) :   0.9458 B(  0-C , 10-H ) :   0.9338
B(  0-C , 11-H ) :   0.9334 B(  1-C ,  2-O ) :   0.9747 B(  1-C ,  3-C ) :   0.9102
B(  1-C ,  8-C ) :   0.9511 B(  2-O , 12-H ) :   0.8164 B(  3-C ,  4-C ) :   0.9003
B(  3-C ,  7-N ) :   0.8636 B(  3-C , 13-H ) :   0.9083 B(  4-C ,  5-C ) :   0.9062
B(  4-C , 14-H ) :   0.9191 B(  4-C , 15-H ) :   0.9319 B(  5-C ,  6-C ) :   0.9146
B(  5-C ,  8-C ) :   0.8593 B(  5-C , 16-H ) :   0.9060 B(  6-C ,  7-N ) :   0.9328
B(  6-C , 17-H ) :   0.9213 B(  6-C , 18-H ) :   0.9307 B(  7-N ,  8-C ) :   0.8985
B(  8-C , 19-H ) :   0.9073

MP2 TOTAL ENERGY:     -402.418295791 Eh
FINAL SINGLE POINT ENERGY      -402.418295790511

DIPOLE MOMENT
-------------
                                X             Y             Z
Electronic contribution:     -2.20368      -3.28261      -0.00666
Nuclear contribution   :      3.15303       3.55360       0.21557
                        -----------------------------------------
Total Dipole Moment    :      0.94935       0.27099       0.20891
                        -----------------------------------------
Magnitude (a.u.)       :      1.00913
Magnitude (Debye)      :      2.56501

                             ****ORCA TERMINATED NORMALLY****
TOTAL RUN TIME: 0 days 0 hours 23 minutes 33 seconds 54 msec
