                         Program Version 3.0.3 - RELEASE   -
|  1> ! RI-MP2 RIJK def2-TZVP def2-TZVP/C def2-TZVP/JK TIGHTSCF
|  2> % maxcore 2000
|  3> % mp2 density relaxed end
|  4> *xyz 0 1
|  5>  C       -0.3032415716     1.5385271398    -0.0472224925
|  6>  C       -0.0681004044     0.0321024978    -0.0058201522
|  7>  O       -1.2884797032    -0.6773949644    -0.1068414418
|  8>  C        1.0946340719    -0.4505611528    -0.9314041911
|  9>  C        2.0171636542    -0.5203451343     0.3091384274
| 10>  C        3.1240626979    -1.5737212342     0.4815013388
| 11>  O        4.1406455698    -0.5605910352     0.6263221523
| 12>  C        3.1693189609     0.4935245331     0.4847311988
| 13>  C        0.7618189306    -0.4486253016     1.2106967637
| 14>  H        0.6292241647     2.0978219666     0.0802632635
| 15>  H       -0.7333253314     1.8372950742    -1.0117918101
| 16>  H       -0.9956292813     1.8360899092     0.7463831625
| 17>  H       -1.7766252629    -0.3322576500    -0.8625211329
| 18>  H        0.8728429104    -1.4468535578    -1.3249087472
| 19>  H        1.4040007344     0.2035927592    -1.7525946942
| 20>  H        3.0393139755    -2.2034973491     1.3776222984
| 21>  H        3.3044785897    -2.2170323545    -0.3903658153
| 22>  H        3.3798010475     1.1309443099    -0.3850646052
| 23>  H        3.1140329004     1.1233475644     1.3833165611
| 24>  H        0.8017216791     0.2049590796     2.0868518848
| 25>  H        0.4280502978    -1.4432049597     1.5194066813
| 26> *
| 27>
| 28>                          ****END OF INPUT****

CARTESIAN COORDINATES (ANGSTROEM)
---------------------------------
  C     -0.303242    1.538527   -0.047222
  C     -0.068100    0.032102   -0.005820
  O     -1.288480   -0.677395   -0.106841
  C      1.094634   -0.450561   -0.931404
  C      2.017164   -0.520345    0.309138
  C      3.124063   -1.573721    0.481501
  O      4.140646   -0.560591    0.626322
  C      3.169319    0.493525    0.484731
  C      0.761819   -0.448625    1.210697
  H      0.629224    2.097822    0.080263
  H     -0.733325    1.837295   -1.011792
  H     -0.995629    1.836090    0.746383
  H     -1.776625   -0.332258   -0.862521
  H      0.872843   -1.446854   -1.324909
  H      1.404001    0.203593   -1.752595
  H      3.039314   -2.203497    1.377622
  H      3.304479   -2.217032   -0.390366
  H      3.379801    1.130944   -0.385065
  H      3.114033    1.123348    1.383317
  H      0.801722    0.204959    2.086852
  H      0.428050   -1.443205    1.519407

 Total Charge           Charge          ....    0
 Multiplicity           Mult            ....    1
 Number of Electrons    NEL             ....   70
 Basis Dimension        Dim             ....  351

ORBITAL ENERGIES
----------------

  NO   OCC          E(Eh)            E(eV)
   0   2.0000     -20.558652      -559.4294
   1   2.0000     -20.544529      -559.0451
   2   2.0000     -11.291238      -307.2502
   3   2.0000     -11.276316      -306.8442
   4   2.0000     -11.274086      -306.7835
   5   2.0000     -11.240726      -305.8757
   6   2.0000     -11.226881      -305.4990
   7   2.0000     -11.225327      -305.4567
   8   2.0000     -11.223656      -305.4112
   9   2.0000      -1.375043       -37.4168
  10   2.0000      -1.368173       -37.2299
  11   2.0000      -1.135572       -30.9005
  12   2.0000      -0.998593       -27.1731
  13   2.0000      -0.933165       -25.3927
  14   2.0000      -0.928573       -25.2678
  15   2.0000      -0.915105       -24.9013
  16   2.0000      -0.782943       -21.3050
  17   2.0000      -0.724170       -19.7057
  18   2.0000      -0.689832       -18.7713
  19   2.0000      -0.670047       -18.2329
  20   2.0000      -0.661941       -18.0123
  21   2.0000      -0.630006       -17.1433
  22   2.0000      -0.607402       -16.5282
  23   2.0000      -0.592488       -16.1224
  24   2.0000      -0.578819       -15.7505
  25   2.0000      -0.563528       -15.3344
  26   2.0000      -0.546380       -14.8678
  27   2.0000      -0.530253       -14.4289
  28   2.0000      -0.520983       -14.1767
  29   2.0000      -0.486825       -13.2472
  30   2.0000      -0.471678       -12.8350
  31   2.0000      -0.442452       -12.0397
  32   2.0000      -0.432508       -11.7691
  33   2.0000      -0.411800       -11.2056
  34   2.0000      -0.405347       -11.0300
  35   0.0000       0.121233         3.2989
  36   0.0000       0.148110         4.0303
  37   0.0000       0.163788         4.4569
  38   0.0000       0.170122         4.6292
  39   0.0000       0.182309         4.9609

MULLIKEN ATOMIC CHARGES
-----------------------
   0 C :   -0.473351
   1 C :    0.207012
   2 O :   -0.448690
   3 C :   -0.197890
   4 C :   -0.055848
   5 C :   -0.014889
   6 O :   -0.329716
   7 C :   -0.037921
   8 C :   -0.194395
   9 H :    0.132874
  10 H :    0.123805
  11 H :    0.145773
  12 H :    0.312095
  13 H :    0.105299
  14 H :    0.120239
  15 H :    0.092625
  16 H :    0.091422
  17 H :    0.089193
  18 H :    0.090601
  19 H :    0.126419
  20 H :    0.115343
Sum of atomic charges:   -0.0000000

LOEWDIN ATOMIC CHARGES
----------------------
   0 C :   -0.279776
   1 C :   -0.382035
   2 O :    0.004692
   3 C :   -0.169847
   4 C :   -0.234110
   5 C :   -0.235662
   6 O :    0.110922
   7 C :   -0.238881
   8 C :   -0.159085
   9 H :    0.130744
  10 H :    0.123665
  11 H :    0.129598
  12 H :    0.175308
  13 H :    0.142768
  14 H :    0.129847
  15 H :    0.119117
  16 H :    0.118678
  17 H :    0.116770
  18 H :    0.117211
  19 H :    0.132583
  20 H :    0.147495

  Mayer bond orders larger than 0.1
B(  0-C ,  1-C ) :   0.9321 B(  0-C ,  9-H ) :   0.9275 B(  0-C , 10-H ) :   0.9258
B(  0-C , 11-H ) :   0.9435 B(  1-C ,  2-O ) :   1.0937 B(  1-C ,  3-C ) :   0.9018
B(  1-C ,  8-C ) :   0.8710 B(  2-O , 12-H ) :   0.8416 B(  3-C ,  4-C ) :   0.9251
B(  3-C , 13-H ) :   0.8873 B(  3-C , 14-H ) :   0.9196 B(  4-C ,  5-C ) :   0.9627
B(  4-C ,  7-C ) :   0.9596 B(  4-C ,  8-C ) :   0.9080 B(  5-C ,  6-O ) :   0.9677
B(  5-C , 15-H ) :   0.9053 B(  5-C , 16-H ) :   0.9058 B(  6-O ,  7-C ) :   0.9737
B(  7-C , 17-H ) :   0.9040 B(  7-C , 18-H ) :   0.9044 B(  8-C , 19-H ) :   0.9256
B(  8-C , 20-H ) :   0.8897

MP2 TOTAL ENERGY:     -423.490258880 Eh
FINAL SINGLE POINT ENERGY      -423.490258880210

DIPOLE MOMENT
-------------
                                X             Y             Z
Electronic contribution:      2.23072      -2.92073       0.58526
Nuclear contribution   :     -2.89845       3.38084      -1.06691
                        -----------------------------------------
Total Dipole Moment    :     -0.66773       0.46010      -0.48165
                        -----------------------------------------
Magnitude (a.u.)       :      0.94315
Magnitude (Debye)      :      2.39731

                             ****ORCA TERMINATED NORMALLY****
TOTAL RUN TIME: 0 days 0 hours 20 minutes 18 seconds 140 msec
