                         Program Version 3.0.3 - RELEASE   -
|  1> ! RI-MP2 RIJK def2-TZVP def2-TZVP/C def2-TZVP/JK TIGHTSCF
|  2> % maxcore 2000
|  3> % mp2 density relaxed end
|  4> *xyz 0 1
|  5>  N       -0.0066499203     0.9107324578     0.7561851712
|  6>  C       -0.0280463623    -0.1520413745     0.0826406978
|  7>  C       -1.2719997912    -0.9447047025    -0.2940419668
|  8>  C       -0.7374333987    -2.1475931557    -1.0452264081
|  9>  C        0.7440319381    -1.9509707731    -1.1041223744
| 10>  O        1.0938704059    -0.7704629967    -0.4297197352
| 11>  C        0.1897530666    -3.1000166974    -0.2732679066
| 12>  C        0.2460546265    -3.0950530669     1.1561525853
| 13>  C        0.2782332768    -3.0851796240     2.3584031850
| 14>  H        0.9510190916     1.2420541460     0.8805591418
| 15>  H       -1.8318329988    -1.1999444737     0.6090863105
| 16>  H       -1.9210563186    -0.3349012623    -0.9284409894
| 17>  H       -1.2964571442    -2.5548335826    -1.8778710558
| 18>  H        1.3706426522    -2.1460937573    -1.9653350936
| 19>  H        0.3073826714    -4.0749828056    -0.7390861557
| 20>  H        0.3193630552    -3.0737486715     3.4194334541
| 21> *
| 22>
| 23>                          ****END OF INPUT****

CARTESIAN COORDINATES (ANGSTROEM)
---------------------------------
  N     -0.006650    0.910732    0.756185
  C     -0.028046   -0.152041    0.082641
  C     -1.272000   -0.944705   -0.294042
  C     -0.737433   -2.147593   -1.045226
  C      0.744032   -1.950971   -1.104122
  O      1.093870   -0.770463   -0.429720
  C      0.189753   -3.100017   -0.273268
  C      0.246055   -3.095053    1.156153
  C      0.278233   -3.085180    2.358403
  H      0.951019    1.242054    0.880559
  H     -1.831833   -1.199944    0.609086
  H     -1.921056   -0.334901   -0.928441
  H     -1.296457   -2.554834   -1.877871
  H      1.370643   -2.146094   -1.965335
  H      0.307383   -4.074983   -0.739086
  H      0.319363   -3.073749    3.419433

 Total Charge           Charge          ....    0
 Multiplicity           Mult            ....    1
 Number of Electrons    NEL             ....   64
 Basis Dimension        Dim             ....  321

ORBITAL ENERGIES
----------------

  NO   OCC          E(Eh)            E(eV)
   0   2.0000     -20.602585      -560.6248
   1   2.0000     -15.531028      -422.6208
   2   2.0000     -11.339749      -308.5703
   3   2.0000     -11.315484      -307.9100
   4   2.0000     -11.275344      -306.8177
   5   2.0000     -11.264626      -306.5260
   6   2.0000     -11.251815      -306.1775
   7   2.0000     -11.242127      -305.9138
   8   2.0000     -11.230476      -305.5968
   9   2.0000      -1.443018       -39.2665
  10   2.0000      -1.202944       -32.7338
  11   2.0000      -1.171888       -31.8887
  12   2.0000      -1.042304       -28.3625
  13   2.0000      -1.010537       -27.4981
  14   2.0000      -0.888709       -24.1830
  15   2.0000      -0.835079       -22.7236
  16   2.0000      -0.785435       -21.3728
  17   2.0000      -0.736675       -20.0459
  18   2.0000      -0.715964       -19.4824
  19   2.0000      -0.676298       -18.4030
  20   2.0000      -0.670910       -18.2564
  21   2.0000      -0.624195       -16.9852
  22   2.0000      -0.605247       -16.4696
  23   2.0000      -0.597177       -16.2500
  24   2.0000      -0.545334       -14.8393
  25   2.0000      -0.534349       -14.5404
  26   2.0000      -0.475251       -12.9322
  27   2.0000      -0.463681       -12.6174
  28   2.0000      -0.436365       -11.8741
  29   2.0000      -0.408478       -11.1153
  30   2.0000      -0.384912       -10.4740
  31   2.0000      -0.367225        -9.9927
  32   0.0000       0.129823         3.5327
  33   0.0000       0.151515         4.1229
  34   0.0000       0.163572         4.4510
  35   0.0000       0.164878         4.4866
  36   0.0000       0.166904         4.5417

MULLIKEN ATOMIC CHARGES
-----------------------
   0 N :   -0.365544
   1 C :    0.091156
   2 C :   -0.145961
   3 C :   -0.128996
   4 C :    0.096387
   5 O :   -0.256891
   6 C :   -0.319957
   7 C :    0.012061
   8 C :   -0.126969
   9 H :    0.226782
  10 H :    0.147386
  11 H :    0.146022
  12 H :    0.144595
  13 H :    0.142013
  14 H :    0.144790
  15 H :    0.193124
Sum of atomic charges:   -0.0000000

LOEWDIN ATOMIC CHARGES
----------------------
   0 N :   -0.052251
   1 C :   -0.377565
   2 C :   -0.187506
   3 C :   -0.164241
   4 C :   -0.223795
   5 O :    0.271836
   6 C :   -0.173558
   7 C :   -0.092633
   8 C :   -0.080882
   9 H :    0.170804
  10 H :    0.161065
  11 H :    0.157903
  12 H :    0.149415
  13 H :    0.142220
  14 H :    0.170361
  15 H :    0.128827

  Mayer bond orders larger than 0.1
B(  0-N ,  1-C ) :   2.0876 B(  0-N ,  9-H ) :   0.8546 B(  1-C ,  2-C ) :   0.9323
B(  1-C ,  5-O ) :   1.0385 B(  2-C ,  3-C ) :   0.9790 B(  2-C , 10-H ) :   0.8991
B(  2-C , 11-H ) :   0.9136 B(  3-C ,  4-C ) :   0.8860 B(  3-C ,  6-C ) :   0.8322
B(  3-C , 12-H ) :   0.9215 B(  4-C ,  5-O ) :   0.9478 B(  4-C ,  6-C ) :   0.8415
B(  4-C , 13-H ) :   0.9326 B(  6-C ,  7-C ) :   1.1759 B(  6-C ,  8-C ) :  -0.1154
B(  6-C , 14-H ) :   0.9198 B(  7-C ,  8-C ) :   2.5535 B(  8-C , 15-H ) :   0.9029

MP2 TOTAL ENERGY:     -400.013404615 Eh
FINAL SINGLE POINT ENERGY      -400.013404614747

DIPOLE MOMENT
-------------
                                X             Y             Z
Electronic contribution:      2.33145       0.44709       0.56585
Nuclear contribution   :     -2.40793      -1.30112      -1.31092
                        -----------------------------------------
Total Dipole Moment    :     -0.07648      -0.85403      -0.74507
                        -----------------------------------------
Magnitude (a.u.)       :      1.13593
Magnitude (Debye)      :      2.88731

                             ****ORCA TERMINATED NORMALLY****
TOTAL RUN TIME: 0 days 0 hours 16 minutes 36 seconds 232 msec
