                         Program Version 3.0.3 - RELEASE   -
|  1> ! RI-MP2 RIJK def2-TZVP def2-TZVP/C def2-TZVP/JK TIGHTSCF
|  2> % maxcore 2000
|  3> % mp2 density relaxed end
|  4> *xyz 0 1
|  5>  O        0.1282396146     1.0988144815    -0.2346374973
|  6>  C       -0.0192916194    -0.2871764972    -0.1107119893
|  7>  C       -0.0434294838    -0.9002907217     1.3311506941
|  8>  O       -1.3422437949    -1.4983640846     1.0646022593
|  9>  C       -1.4570518872    -0.7729614132    -0.1625852345
| 10>  C       -2.6674796946     0.0234727570    -0.5180251678
| 11>  C       -2.3007124157    -1.2339829550    -1.2975614879
| 12>  C        0.9801358664    -1.8597023683     1.6907611909
| 13>  C        1.8541388497    -2.6375766770     1.9673045371
| 14>  H        1.0622608585     1.3009911769    -0.3462906379
| 15>  H        0.6550338488    -0.8379506181    -0.7766972679
| 16>  H       -0.1282168328    -0.1076708589     2.0858470154
| 17>  H       -3.5125163009    -0.0390333300     0.1588898085
| 18>  H       -2.5155725402     0.9909120579    -0.9837323897
| 19>  H       -1.9141100940    -1.1311908332    -2.3066676889
| 20>  H       -2.9047556139    -2.1191374168    -1.1293500715
| 21>  H        2.6172560396    -3.3313501396     2.2211097875
| 22> *
| 23>
| 24>                          ****END OF INPUT****

CARTESIAN COORDINATES (ANGSTROEM)
---------------------------------
  O      0.128240    1.098814   -0.234637
  C     -0.019292   -0.287176   -0.110712
  C     -0.043429   -0.900291    1.331151
  O     -1.342244   -1.498364    1.064602
  C     -1.457052   -0.772961   -0.162585
  C     -2.667480    0.023473   -0.518025
  C     -2.300712   -1.233983   -1.297561
  C      0.980136   -1.859702    1.690761
  C      1.854139   -2.637577    1.967305
  H      1.062261    1.300991   -0.346291
  H      0.655034   -0.837951   -0.776697
  H     -0.128217   -0.107671    2.085847
  H     -3.512516   -0.039033    0.158890
  H     -2.515573    0.990912   -0.983732
  H     -1.914110   -1.131191   -2.306668
  H     -2.904756   -2.119137   -1.129350
  H      2.617256   -3.331350    2.221110

 Total Charge           Charge          ....    0
 Multiplicity           Mult            ....    1
 Number of Electrons    NEL             ....   66
 Basis Dimension        Dim             ....  327

ORBITAL ENERGIES
----------------

  NO   OCC          E(Eh)            E(eV)
   0   2.0000     -20.579799      -560.0048
   1   2.0000     -20.563391      -559.5583
   2   2.0000     -11.312821      -307.8375
   3   2.0000     -11.304741      -307.6176
   4   2.0000     -11.291451      -307.2560
   5   2.0000     -11.241218      -305.8891
   6   2.0000     -11.235802      -305.7417
   7   2.0000     -11.229194      -305.5619
   8   2.0000     -11.225976      -305.4743
   9   2.0000      -1.407391       -38.2971
  10   2.0000      -1.376347       -37.4523
  11   2.0000      -1.135205       -30.8905
  12   2.0000      -1.059475       -28.8298
  13   2.0000      -0.993840       -27.0438
  14   2.0000      -0.907360       -24.6905
  15   2.0000      -0.835069       -22.7234
  16   2.0000      -0.750002       -20.4086
  17   2.0000      -0.742902       -20.2154
  18   2.0000      -0.726029       -19.7563
  19   2.0000      -0.690345       -18.7852
  20   2.0000      -0.682881       -18.5821
  21   2.0000      -0.651974       -17.7411
  22   2.0000      -0.600579       -16.3426
  23   2.0000      -0.594385       -16.1740
  24   2.0000      -0.550296       -14.9743
  25   2.0000      -0.529436       -14.4067
  26   2.0000      -0.516461       -14.0536
  27   2.0000      -0.502557       -13.6753
  28   2.0000      -0.467163       -12.7121
  29   2.0000      -0.428627       -11.6635
  30   2.0000      -0.404502       -11.0071
  31   2.0000      -0.392190       -10.6720
  32   2.0000      -0.377849       -10.2818
  33   0.0000       0.126144         3.4325
  34   0.0000       0.151051         4.1103
  35   0.0000       0.162425         4.4198
  36   0.0000       0.164210         4.4684
  37   0.0000       0.166587         4.5331

MULLIKEN ATOMIC CHARGES
-----------------------
   0 O :   -0.446346
   1 C :    0.020452
   2 C :   -0.054510
   3 O :   -0.303683
   4 C :    0.190104
   5 C :   -0.271558
   6 C :   -0.277387
   7 C :   -0.047707
   8 C :   -0.097073
   9 H :    0.326268
  10 H :    0.103671
  11 H :    0.115244
  12 H :    0.136476
  13 H :    0.140008
  14 H :    0.131651
  15 H :    0.137976
  16 H :    0.196417
Sum of atomic charges:    0.0000000

LOEWDIN ATOMIC CHARGES
----------------------
   0 O :    0.007477
   1 C :   -0.265798
   2 C :   -0.239730
   3 O :    0.200530
   4 C :   -0.296633
   5 C :   -0.198075
   6 C :   -0.203810
   7 C :   -0.088868
   8 C :   -0.077752
   9 H :    0.181612
  10 H :    0.139911
  11 H :    0.156563
  12 H :    0.139850
  13 H :    0.138853
  14 H :    0.135476
  15 H :    0.141564
  16 H :    0.128832

  Mayer bond orders larger than 0.1
B(  0-O ,  1-C ) :   1.0907 B(  0-O ,  9-H ) :   0.8394 B(  1-C ,  2-C ) :   0.9130
B(  1-C ,  4-C ) :   0.9089 B(  1-C , 10-H ) :   0.9372 B(  2-C ,  3-O ) :   0.9661
B(  2-C ,  7-C ) :   1.1569 B(  2-C ,  8-C ) :  -0.1136 B(  2-C , 11-H ) :   0.9072
B(  3-O ,  4-C ) :   0.9632 B(  4-C ,  5-C ) :   0.8695 B(  4-C ,  6-C ) :   0.8614
B(  5-C ,  6-C ) :   0.9330 B(  5-C , 12-H ) :   0.9165 B(  5-C , 13-H ) :   0.9082
B(  6-C , 14-H ) :   0.9153 B(  6-C , 15-H ) :   0.9116 B(  7-C ,  8-C ) :   2.5574
B(  8-C , 16-H ) :   0.8903

MP2 TOTAL ENERGY:     -421.029992854 Eh
FINAL SINGLE POINT ENERGY      -421.029992854004

DIPOLE MOMENT
-------------
                                X             Y             Z
Electronic contribution:      2.82346      -1.12936       3.39602
Nuclear contribution   :     -1.99910       1.34693      -3.85261
                        -----------------------------------------
Total Dipole Moment    :      0.82436       0.21757      -0.45659
                        -----------------------------------------
Magnitude (a.u.)       :      0.96715
Magnitude (Debye)      :      2.45830

                             ****ORCA TERMINATED NORMALLY****
TOTAL RUN TIME: 0 days 0 hours 15 minutes 59 seconds 356 msec
