                         Program Version 3.0.3 - RELEASE   -
|  1> ! RI-MP2 RIJK def2-TZVP def2-TZVP/C def2-TZVP/JK TIGHTSCF
|  2> % maxcore 2000
|  3> % mp2 density relaxed end
|  4> *xyz 0 1
|  5>  N        0.1727242035     1.3562633477    -0.1591327433
|  6>  C        0.0368901711    -0.0530158927    -0.0005425896
|  7>  C       -0.5871199075    -0.7177483765     1.2635078336
|  8>  C       -1.0426366743     0.1377405136     2.3091687035
|  9>  N       -1.4300274489     0.8768917610     3.1135136511
| 10>  C       -1.3250122052    -0.6700622182    -0.0908436909
| 11>  N       -2.4565268235     0.1985169098    -0.2803944074
| 12>  C       -1.4676231266    -1.9678929551    -0.8483348068
| 13>  O       -2.6437899814    -2.6179337034    -0.3874612603
| 14>  H       -0.7112242112     1.7774274807    -0.4237907949
| 15>  H        0.5275002699     1.8206662939     0.6685251447
| 16>  H        0.8606314751    -0.6398883165    -0.4045935787
| 17>  H       -0.1689212805    -1.6658633141     1.5835060720
| 18>  H       -3.2854411505    -0.3869749181    -0.3393274028
| 19>  H       -2.5941705224     0.8068982538     0.5217459116
| 20>  H       -1.5357861905    -1.7363972638    -1.9217147356
| 21>  H       -0.5740791253    -2.5888947221    -0.6908082097
| 22>  H       -2.8648196718    -3.3220389100    -1.0037893663
| 23> *
| 24>
| 25>                          ****END OF INPUT****

CARTESIAN COORDINATES (ANGSTROEM)
---------------------------------
  N      0.172724    1.356263   -0.159133
  C      0.036890   -0.053016   -0.000543
  C     -0.587120   -0.717748    1.263508
  C     -1.042637    0.137741    2.309169
  N     -1.430027    0.876892    3.113514
  C     -1.325012   -0.670062   -0.090844
  N     -2.456527    0.198517   -0.280394
  C     -1.467623   -1.967893   -0.848335
  O     -2.643790   -2.617934   -0.387461
  H     -0.711224    1.777427   -0.423791
  H      0.527500    1.820666    0.668525
  H      0.860631   -0.639888   -0.404594
  H     -0.168921   -1.665863    1.583506
  H     -3.285441   -0.386975   -0.339327
  H     -2.594171    0.806898    0.521746
  H     -1.535786   -1.736397   -1.921715
  H     -0.574079   -2.588895   -0.690808
  H     -2.864820   -3.322039   -1.003789

 Total Charge           Charge          ....    0
 Multiplicity           Mult            ....    1
 Number of Electrons    NEL             ....   68
 Basis Dimension        Dim             ....  333

ORBITAL ENERGIES
----------------

  NO   OCC          E(Eh)            E(eV)
   0   2.0000     -20.582337      -560.0739
   1   2.0000     -15.569570      -423.6695
   2   2.0000     -15.562342      -423.4728
   3   2.0000     -15.554264      -423.2531
   4   2.0000     -11.305533      -307.6392
   5   2.0000     -11.300891      -307.5129
   6   2.0000     -11.289235      -307.1957
   7   2.0000     -11.276606      -306.8520
   8   2.0000     -11.275532      -306.8228
   9   2.0000      -1.388498       -37.7830
  10   2.0000      -1.262105       -34.3436
  11   2.0000      -1.213625       -33.0244
  12   2.0000      -1.181767       -32.1575
  13   2.0000      -1.101213       -29.9655
  14   2.0000      -0.980871       -26.6909
  15   2.0000      -0.892453       -24.2849
  16   2.0000      -0.792003       -21.5515
  17   2.0000      -0.737368       -20.0648
  18   2.0000      -0.723739       -19.6939
  19   2.0000      -0.704806       -19.1787
  20   2.0000      -0.668864       -18.2007
  21   2.0000      -0.643877       -17.5208
  22   2.0000      -0.626659       -17.0523
  23   2.0000      -0.609772       -16.5927
  24   2.0000      -0.583233       -15.8706
  25   2.0000      -0.569460       -15.4958
  26   2.0000      -0.555608       -15.1189
  27   2.0000      -0.520183       -14.1549
  28   2.0000      -0.502073       -13.6621
  29   2.0000      -0.477886       -13.0039
  30   2.0000      -0.465223       -12.6594
  31   2.0000      -0.444788       -12.1033
  32   2.0000      -0.404224       -10.9995
  33   2.0000      -0.371652       -10.1132
  34   0.0000       0.113162         3.0793
  35   0.0000       0.138828         3.7777
  36   0.0000       0.145116         3.9488
  37   0.0000       0.159783         4.3479
  38   0.0000       0.179684         4.8895

MULLIKEN ATOMIC CHARGES
-----------------------
   0 N :   -0.546525
   1 C :   -0.066908
   2 C :   -0.040069
   3 C :   -0.245678
   4 N :   -0.048059
   5 C :    0.224341
   6 N :   -0.563733
   7 C :   -0.117859
   8 O :   -0.469185
   9 H :    0.254922
  10 H :    0.252576
  11 H :    0.136290
  12 H :    0.160155
  13 H :    0.258823
  14 H :    0.254022
  15 H :    0.129367
  16 H :    0.103482
  17 H :    0.324037
Sum of atomic charges:    0.0000000

LOEWDIN ATOMIC CHARGES
----------------------
   0 N :   -0.116047
   1 C :   -0.238796
   2 C :   -0.176014
   3 C :   -0.200098
   4 N :    0.054465
   5 C :   -0.297889
   6 N :   -0.100272
   7 C :   -0.302916
   8 O :   -0.041631
   9 H :    0.164064
  10 H :    0.162773
  11 H :    0.147638
  12 H :    0.169146
  13 H :    0.173010
  14 H :    0.167238
  15 H :    0.130981
  16 H :    0.127097
  17 H :    0.177252

  Mayer bond orders larger than 0.1
B(  0-N ,  1-C ) :   1.0318 B(  0-N ,  9-H ) :   0.8837 B(  0-N , 10-H ) :   0.8856
B(  1-C ,  2-C ) :   0.7823 B(  1-C ,  5-C ) :   0.8626 B(  1-C , 11-H ) :   0.9484
B(  2-C ,  3-C ) :   1.0162 B(  2-C ,  5-C ) :   0.8026 B(  2-C , 12-H ) :   0.8898
B(  3-C ,  4-N ) :   2.8277 B(  5-C ,  6-N ) :   0.9919 B(  5-C ,  7-C ) :   0.9018
B(  6-N , 13-H ) :   0.8693 B(  6-N , 14-H ) :   0.8735 B(  7-C ,  8-O ) :   1.0286
B(  7-C , 15-H ) :   0.9407 B(  7-C , 16-H ) :   0.9108 B(  8-O , 17-H ) :   0.8423

MP2 TOTAL ENERGY:     -434.538497657 Eh
FINAL SINGLE POINT ENERGY      -434.538497656576

DIPOLE MOMENT
-------------
                                X             Y             Z
Electronic contribution:     -0.58854       0.73962       4.76513
Nuclear contribution   :      0.72657      -2.05451      -5.93313
                        -----------------------------------------
Total Dipole Moment    :      0.13804      -1.31489      -1.16800
                        -----------------------------------------
Magnitude (a.u.)       :      1.76415
Magnitude (Debye)      :      4.48411

                             ****ORCA TERMINATED NORMALLY****
TOTAL RUN TIME: 0 days 0 hours 17 minutes 27 seconds 826 msec
