                         Program Version 3.0.3 - RELEASE   -
|  1> ! RI-MP2 RIJK def2-TZVP def2-TZVP/C def2-TZVP/JK TIGHTSCF
|  2> % maxcore 2000
|  3> % mp2 density relaxed end
|  4> *xyz 0 1
|  5>  C        0.0030509250     1.3724768102     0.1406019503
|  6>  O       -0.0859914673    -0.0216519179    -0.0602437501
|  7>  C        0.6338451927    -0.5092386395    -1.1775065863
|  8>  C        2.1392226640    -0.6791378987    -0.8935718961
|  9>  N        2.8657219642    -1.3055446202    -1.9966109886
| 10>  C        2.3264301842    -2.6207225226    -2.3582667088
| 11>  C        0.8184372895    -2.5992099722    -2.6159741968
| 12>  O        0.3121587407    -3.1118568976    -3.5865061602
| 13>  C        0.0117670163    -1.8614188093    -1.5549784491
| 14>  H        1.0209032128     1.7013922712     0.3945032971
| 15>  H       -0.3292468752     1.9305248244    -0.7483000982
| 16>  H       -0.6571422876     1.6175433118     0.9760111511
| 17>  H        0.5170914789     0.1888094843    -2.0258947755
| 18>  H        2.6035847366     0.2880261635    -0.6777799519
| 19>  H        2.2565274192    -1.3024692259     0.0029359384
| 20>  H        2.8457572675    -0.6984871846    -2.8108769261
| 21>  H        2.8331514434    -3.0035430991    -3.2469492377
| 22>  H        2.5296927294    -3.3146160102    -1.5292591652
| 23>  H        0.0029322743    -2.4802690621    -0.6462321967
| 24>  H       -1.0198531485    -1.7470858157    -1.8939803895
| 25> *
| 26>
| 27>                          ****END OF INPUT****

CARTESIAN COORDINATES (ANGSTROEM)
---------------------------------
  C      0.003051    1.372477    0.140602
  O     -0.085991   -0.021652   -0.060244
  C      0.633845   -0.509239   -1.177507
  C      2.139223   -0.679138   -0.893572
  N      2.865722   -1.305545   -1.996611
  C      2.326430   -2.620723   -2.358267
  C      0.818437   -2.599210   -2.615974
  O      0.312159   -3.111857   -3.586506
  C      0.011767   -1.861419   -1.554978
  H      1.020903    1.701392    0.394503
  H     -0.329247    1.930525   -0.748300
  H     -0.657142    1.617543    0.976011
  H      0.517091    0.188809   -2.025895
  H      2.603585    0.288026   -0.677780
  H      2.256527   -1.302469    0.002936
  H      2.845757   -0.698487   -2.810877
  H      2.833151   -3.003543   -3.246949
  H      2.529693   -3.314616   -1.529259
  H      0.002932   -2.480269   -0.646232
  H     -1.019853   -1.747086   -1.893980

 Total Charge           Charge          ....    0
 Multiplicity           Mult            ....    1
 Number of Electrons    NEL             ....   70
 Basis Dimension        Dim             ....  345

ORBITAL ENERGIES
----------------

  NO   OCC          E(Eh)            E(eV)
   0   2.0000     -20.568306      -559.6921
   1   2.0000     -20.549307      -559.1751
   2   2.0000     -15.565181      -423.5501
   3   2.0000     -11.329209      -308.2835
   4   2.0000     -11.297076      -307.4091
   5   2.0000     -11.281833      -306.9943
   6   2.0000     -11.266972      -306.5899
   7   2.0000     -11.262835      -306.4773
   8   2.0000     -11.237712      -305.7937
   9   2.0000      -1.392201       -37.8837
  10   2.0000      -1.388151       -37.7735
  11   2.0000      -1.230570       -33.4855
  12   2.0000      -1.063489       -28.9390
  13   2.0000      -1.007075       -27.4039
  14   2.0000      -0.935691       -25.4614
  15   2.0000      -0.895080       -24.3564
  16   2.0000      -0.826690       -22.4954
  17   2.0000      -0.754460       -20.5299
  18   2.0000      -0.688748       -18.7418
  19   2.0000      -0.681724       -18.5506
  20   2.0000      -0.665500       -18.1092
  21   2.0000      -0.659893       -17.9566
  22   2.0000      -0.636765       -17.3272
  23   2.0000      -0.606586       -16.5060
  24   2.0000      -0.597031       -16.2460
  25   2.0000      -0.594822       -16.1859
  26   2.0000      -0.543822       -14.7981
  27   2.0000      -0.538936       -14.6652
  28   2.0000      -0.524331       -14.2678
  29   2.0000      -0.513286       -13.9672
  30   2.0000      -0.500670       -13.6239
  31   2.0000      -0.475682       -12.9440
  32   2.0000      -0.465629       -12.6704
  33   2.0000      -0.420275       -11.4363
  34   2.0000      -0.369802       -10.0628
  35   0.0000       0.121549         3.3075
  36   0.0000       0.136136         3.7045
  37   0.0000       0.150078         4.0838
  38   0.0000       0.161012         4.3814
  39   0.0000       0.172681         4.6989

MULLIKEN ATOMIC CHARGES
-----------------------
   0 C :   -0.229307
   1 O :   -0.295727
   2 C :    0.027638
   3 C :   -0.192203
   4 N :   -0.316726
   5 C :   -0.169162
   6 C :    0.124503
   7 O :   -0.269500
   8 C :   -0.139291
   9 H :    0.114304
  10 H :    0.116430
  11 H :    0.145724
  12 H :    0.072240
  13 H :    0.138038
  14 H :    0.118812
  15 H :    0.207133
  16 H :    0.151598
  17 H :    0.123253
  18 H :    0.131020
  19 H :    0.141224
Sum of atomic charges:   -0.0000000

LOEWDIN ATOMIC CHARGES
----------------------
   0 C :   -0.355193
   1 O :    0.158905
   2 C :   -0.337643
   3 C :   -0.291332
   4 N :   -0.012627
   5 C :   -0.273771
   6 C :   -0.331615
   7 O :    0.150876
   8 C :   -0.205089
   9 H :    0.101130
  10 H :    0.103250
  11 H :    0.115830
  12 H :    0.135147
  13 H :    0.133691
  14 H :    0.139167
  15 H :    0.171732
  16 H :    0.142332
  17 H :    0.145187
  18 H :    0.160360
  19 H :    0.149662

  Mayer bond orders larger than 0.1
B(  0-C ,  1-O ) :   0.9121 B(  0-C ,  9-H ) :   0.9343 B(  0-C , 10-H ) :   0.9353
B(  0-C , 11-H ) :   0.9407 B(  1-O ,  2-C ) :   0.9695 B(  2-C ,  3-C ) :   0.8919
B(  2-C ,  8-C ) :   0.8698 B(  2-C , 12-H ) :   0.9409 B(  3-C ,  4-N ) :   0.9605
B(  3-C , 13-H ) :   0.9320 B(  3-C , 14-H ) :   0.9292 B(  4-N ,  5-C ) :   0.9484
B(  4-N , 15-H ) :   0.8795 B(  5-C ,  6-C ) :   0.8821 B(  5-C , 16-H ) :   0.9258
B(  5-C , 17-H ) :   0.9137 B(  6-C ,  7-O ) :   2.0265 B(  6-C ,  8-C ) :   0.9065
B(  8-C , 18-H ) :   0.9033 B(  8-C , 19-H ) :   0.9168

MP2 TOTAL ENERGY:     -439.570504083 Eh
FINAL SINGLE POINT ENERGY      -439.570504082892

DIPOLE MOMENT
-------------
                                X             Y             Z
Electronic contribution:     -1.28345      -5.27649      -4.02763
Nuclear contribution   :      1.60359       6.22624       4.53634
                        -----------------------------------------
Total Dipole Moment    :      0.32014       0.94975       0.50871
                        -----------------------------------------
Magnitude (a.u.)       :      1.12397
Magnitude (Debye)      :      2.85689

                             ****ORCA TERMINATED NORMALLY****
TOTAL RUN TIME: 0 days 0 hours 19 minutes 0 seconds 105 msec
