                         Program Version 3.0.3 - RELEASE   -
|  1> ! RI-MP2 RIJK def2-TZVP def2-TZVP/C def2-TZVP/JK TIGHTSCF
|  2> % maxcore 2000
|  3> % mp2 density relaxed end
|  4> *xyz 0 1
|  5>  C        1.0071038135     1.2703250544    -0.1095149809
|  6>  C       -0.1642944551     0.3223346659    -0.1848409188
|  7>  O       -1.0655869252     0.3288644870     0.6213454639
|  8>  C       -0.1221199308    -0.6933638165    -1.3572098101
|  9>  C        0.4646481642    -1.9257081350    -0.8437211342
| 10>  C        0.9579132585    -2.9253156372    -0.3942909152
| 11>  C       -1.4957667289    -0.9571466418    -2.0430608702
| 12>  N       -2.5116110705    -1.2381181560    -1.1917273106
| 13>  O       -1.5822621441    -0.9415344827    -3.2520039993
| 14>  H        1.9458014601     0.7067092785    -0.1376444690
| 15>  H        1.0031222007     1.9286437035    -0.9862486987
| 16>  H        0.9510428262     1.8677149450     0.8007285152
| 17>  H        0.5130836027    -0.2969081223    -2.1546616270
| 18>  H        1.3838197074    -3.8201583560    -0.0122795521
| 19>  H       -2.4139698254    -0.9784357200    -0.2196363748
| 20>  H       -3.4329414133    -1.3197956068    -1.5921749082
| 21> *
| 22>
| 23>                          ****END OF INPUT****

CARTESIAN COORDINATES (ANGSTROEM)
---------------------------------
  C      1.007104    1.270325   -0.109515
  C     -0.164294    0.322335   -0.184841
  O     -1.065587    0.328864    0.621345
  C     -0.122120   -0.693364   -1.357210
  C      0.464648   -1.925708   -0.843721
  C      0.957913   -2.925316   -0.394291
  C     -1.495767   -0.957147   -2.043061
  N     -2.511611   -1.238118   -1.191727
  O     -1.582262   -0.941534   -3.252004
  H      1.945801    0.706709   -0.137644
  H      1.003122    1.928644   -0.986249
  H      0.951043    1.867715    0.800729
  H      0.513084   -0.296908   -2.154662
  H      1.383820   -3.820158   -0.012280
  H     -2.413970   -0.978436   -0.219636
  H     -3.432941   -1.319796   -1.592175

 Total Charge           Charge          ....    0
 Multiplicity           Mult            ....    1
 Number of Electrons    NEL             ....   66
 Basis Dimension        Dim             ....  321

ORBITAL ENERGIES
----------------

  NO   OCC          E(Eh)            E(eV)
   0   2.0000     -20.576532      -559.9159
   1   2.0000     -20.529559      -558.6377
   2   2.0000     -15.579858      -423.9495
   3   2.0000     -11.367984      -309.3386
   4   2.0000     -11.366595      -309.3008
   5   2.0000     -11.294543      -307.3401
   6   2.0000     -11.258429      -306.3574
   7   2.0000     -11.255568      -306.2796
   8   2.0000     -11.246091      -306.0217
   9   2.0000      -1.423995       -38.7489
  10   2.0000      -1.393738       -37.9255
  11   2.0000      -1.217393       -33.1270
  12   2.0000      -1.112889       -30.2832
  13   2.0000      -1.035837       -28.1866
  14   2.0000      -0.993384       -27.0314
  15   2.0000      -0.822242       -22.3743
  16   2.0000      -0.787034       -21.4163
  17   2.0000      -0.753768       -20.5111
  18   2.0000      -0.725466       -19.7409
  19   2.0000      -0.696083       -18.9414
  20   2.0000      -0.683931       -18.6107
  21   2.0000      -0.656635       -17.8679
  22   2.0000      -0.630679       -17.1617
  23   2.0000      -0.606260       -16.4972
  24   2.0000      -0.592255       -16.1161
  25   2.0000      -0.585296       -15.9267
  26   2.0000      -0.555861       -15.1257
  27   2.0000      -0.528422       -14.3791
  28   2.0000      -0.462942       -12.5973
  29   2.0000      -0.454022       -12.3546
  30   2.0000      -0.421842       -11.4789
  31   2.0000      -0.404583       -11.0093
  32   2.0000      -0.392940       -10.6925
  33   0.0000       0.112260         3.0547
  34   0.0000       0.119705         3.2573
  35   0.0000       0.148370         4.0374
  36   0.0000       0.156381         4.2553
  37   0.0000       0.158739         4.3195

MULLIKEN ATOMIC CHARGES
-----------------------
   0 C :   -0.434705
   1 C :    0.262077
   2 O :   -0.317480
   3 C :   -0.036547
   4 C :   -0.137453
   5 C :   -0.156322
   6 C :    0.257809
   7 N :   -0.466792
   8 O :   -0.331492
   9 H :    0.165748
  10 H :    0.163284
  11 H :    0.157026
  12 H :    0.135909
  13 H :    0.197665
  14 H :    0.284885
  15 H :    0.256389
Sum of atomic charges:   -0.0000000

LOEWDIN ATOMIC CHARGES
----------------------
   0 C :   -0.267286
   1 C :   -0.298450
   2 O :    0.155127
   3 C :   -0.179702
   4 C :   -0.084072
   5 C :   -0.076539
   6 C :   -0.449077
   7 N :    0.004726
   8 O :    0.097540
   9 H :    0.145681
  10 H :    0.144516
  11 H :    0.136202
  12 H :    0.186729
  13 H :    0.130128
  14 H :    0.178033
  15 H :    0.176444

  Mayer bond orders larger than 0.1
B(  0-C ,  1-C ) :   0.9329 B(  0-C ,  9-H ) :   0.9090 B(  0-C , 10-H ) :   0.9119
B(  0-C , 11-H ) :   0.9340 B(  1-C ,  2-O ) :   1.8949 B(  1-C ,  3-C ) :   0.8085
B(  3-C ,  4-C ) :   1.1451 B(  3-C ,  6-C ) :   0.8367 B(  3-C , 12-H ) :   0.8775
B(  4-C ,  5-C ) :   2.5969 B(  5-C , 13-H ) :   0.8885 B(  6-C ,  7-N ) :   1.2007
B(  6-C ,  8-O ) :   2.0046 B(  7-N , 14-H ) :   0.8317 B(  7-N , 15-H ) :   0.8603

MP2 TOTAL ENERGY:     -437.172270840 Eh
FINAL SINGLE POINT ENERGY      -437.172270840194

DIPOLE MOMENT
-------------
                                X             Y             Z
Electronic contribution:     -3.07796      -2.53285      -1.58121
Nuclear contribution   :      3.58393       2.83514       2.37504
                        -----------------------------------------
Total Dipole Moment    :      0.50597       0.30229       0.79382
                        -----------------------------------------
Magnitude (a.u.)       :      0.98870
Magnitude (Debye)      :      2.51309

                             ****ORCA TERMINATED NORMALLY****
TOTAL RUN TIME: 0 days 0 hours 16 minutes 20 seconds 988 msec
