                         Program Version 3.0.3 - RELEASE   -
|  1> ! RI-MP2 RIJK def2-TZVP def2-TZVP/C def2-TZVP/JK TIGHTSCF
|  2> % maxcore 2000
|  3> % mp2 density relaxed end
|  4> *xyz 0 1
|  5>  C       -0.1504534405     1.1312687988     0.4953942804
|  6>  O       -0.2017104247    -0.2101999351     0.0414391777
|  7>  C        0.5134021409    -0.4841050506    -1.1487436181
|  8>  C        2.0582707879    -0.3976860492    -1.0426388763
|  9>  C        2.1037223361    -1.8839222704    -0.6037966085
| 10>  C        0.6787491862    -2.0620108549    -1.1937083355
| 11>  O       -0.2793494352    -2.8138650085    -0.5259054200
| 12>  C       -0.1649586149     0.1239631564    -2.3524300338
| 13>  O        0.3848064714     0.3295837870    -3.4058028144
| 14>  H        0.8624206159     1.4255145740     0.7985358805
| 15>  H       -0.5024953564     1.8359814165    -0.2706493643
| 16>  H       -0.8112308042     1.1950923083     1.3625310248
| 17>  H        2.4785475665    -0.2291104687    -2.0363604097
| 18>  H        2.4638165706     0.3454088947    -0.3546046450
| 19>  H        2.8960010067    -2.5172264905    -1.0073359230
| 20>  H        2.0818972367    -1.9873414269     0.4841340514
| 21>  H        0.7168091135    -2.4078746393    -2.2301625616
| 22>  H       -0.5073609259    -2.3169212236     0.2709201844
| 23>  H       -1.2517553406     0.3211247319    -2.2073687591
| 24> *
| 25>
| 26>                          ****END OF INPUT****

CARTESIAN COORDINATES (ANGSTROEM)
---------------------------------
  C     -0.150453    1.131269    0.495394
  O     -0.201710   -0.210200    0.041439
  C      0.513402   -0.484105   -1.148744
  C      2.058271   -0.397686   -1.042639
  C      2.103722   -1.883922   -0.603797
  C      0.678749   -2.062011   -1.193708
  O     -0.279349   -2.813865   -0.525905
  C     -0.164959    0.123963   -2.352430
  O      0.384806    0.329584   -3.405803
  H      0.862421    1.425515    0.798536
  H     -0.502495    1.835981   -0.270649
  H     -0.811231    1.195092    1.362531
  H      2.478548   -0.229110   -2.036360
  H      2.463817    0.345409   -0.354605
  H      2.896001   -2.517226   -1.007336
  H      2.081897   -1.987341    0.484134
  H      0.716809   -2.407875   -2.230163
  H     -0.507361   -2.316921    0.270920
  H     -1.251755    0.321125   -2.207369

 Total Charge           Charge          ....    0
 Multiplicity           Mult            ....    1
 Number of Electrons    NEL             ....   70
 Basis Dimension        Dim             ....  339

ORBITAL ENERGIES
----------------

  NO   OCC          E(Eh)            E(eV)
   0   2.0000     -20.587462      -560.2133
   1   2.0000     -20.566015      -559.6297
   2   2.0000     -20.560316      -559.4746
   3   2.0000     -11.336137      -308.4720
   4   2.0000     -11.303244      -307.5769
   5   2.0000     -11.295200      -307.3580
   6   2.0000     -11.294232      -307.3317
   7   2.0000     -11.238085      -305.8038
   8   2.0000     -11.231383      -305.6215
   9   2.0000      -1.416715       -38.5508
  10   2.0000      -1.399381       -38.0791
  11   2.0000      -1.369142       -37.2562
  12   2.0000      -1.130425       -30.7604
  13   2.0000      -0.983584       -26.7647
  14   2.0000      -0.926647       -25.2153
  15   2.0000      -0.901927       -24.5427
  16   2.0000      -0.832613       -22.6565
  17   2.0000      -0.766287       -20.8517
  18   2.0000      -0.714643       -19.4464
  19   2.0000      -0.709963       -19.3191
  20   2.0000      -0.675747       -18.3880
  21   2.0000      -0.649743       -17.6804
  22   2.0000      -0.631090       -17.1728
  23   2.0000      -0.627777       -17.0827
  24   2.0000      -0.598766       -16.2933
  25   2.0000      -0.587729       -15.9929
  26   2.0000      -0.564380       -15.3576
  27   2.0000      -0.542710       -14.7679
  28   2.0000      -0.531907       -14.4739
  29   2.0000      -0.509031       -13.8514
  30   2.0000      -0.496205       -13.5024
  31   2.0000      -0.478000       -13.0070
  32   2.0000      -0.445281       -12.1167
  33   2.0000      -0.435390       -11.8476
  34   2.0000      -0.399430       -10.8690
  35   0.0000       0.110563         3.0086
  36   0.0000       0.142426         3.8756
  37   0.0000       0.152464         4.1488
  38   0.0000       0.162504         4.4220
  39   0.0000       0.173433         4.7194

MULLIKEN ATOMIC CHARGES
-----------------------
   0 C :   -0.225702
   1 O :   -0.355792
   2 C :    0.280054
   3 C :   -0.310713
   4 C :   -0.191266
   5 C :    0.037902
   6 O :   -0.458062
   7 C :    0.028386
   8 O :   -0.268113
   9 H :    0.122060
  10 H :    0.127498
  11 H :    0.147918
  12 H :    0.150016
  13 H :    0.129483
  14 H :    0.127020
  15 H :    0.109960
  16 H :    0.114731
  17 H :    0.332816
  18 H :    0.101804
Sum of atomic charges:   -0.0000000

LOEWDIN ATOMIC CHARGES
----------------------
   0 C :   -0.338537
   1 O :    0.172981
   2 C :   -0.330591
   3 C :   -0.197745
   4 C :   -0.222857
   5 C :   -0.289477
   6 O :    0.005963
   7 C :   -0.265218
   8 O :    0.140549
   9 H :    0.105525
  10 H :    0.108669
  11 H :    0.117096
  12 H :    0.148513
  13 H :    0.129413
  14 H :    0.126505
  15 H :    0.138121
  16 H :    0.148824
  17 H :    0.182944
  18 H :    0.119321

  Mayer bond orders larger than 0.1
B(  0-C ,  1-O ) :   0.8959 B(  0-C ,  9-H ) :   0.9325 B(  0-C , 10-H ) :   0.9341
B(  0-C , 11-H ) :   0.9383 B(  1-O ,  2-C ) :   0.9135 B(  2-C ,  3-C ) :   0.8946
B(  2-C ,  5-C ) :   0.8720 B(  2-C ,  7-C ) :   0.8388 B(  3-C ,  4-C ) :   0.9210
B(  3-C , 12-H ) :   0.9041 B(  3-C , 13-H ) :   0.9280 B(  4-C ,  5-C ) :   0.9142
B(  4-C , 14-H ) :   0.9280 B(  4-C , 15-H ) :   0.9123 B(  5-C ,  6-O ) :   1.0188
B(  5-C , 16-H ) :   0.9208 B(  6-O , 17-H ) :   0.8176 B(  7-C ,  8-O ) :   1.9840
B(  7-C , 18-H ) :   0.9473

MP2 TOTAL ENERGY:     -459.410132882 Eh
FINAL SINGLE POINT ENERGY      -459.410132882071

DIPOLE MOMENT
-------------
                                X             Y             Z
Electronic contribution:     -2.81158      -1.74347      -4.04336
Nuclear contribution   :      3.01716       2.43956       5.04558
                        -----------------------------------------
Total Dipole Moment    :      0.20558       0.69609       1.00222
                        -----------------------------------------
Magnitude (a.u.)       :      1.23743
Magnitude (Debye)      :      3.14530

                             ****ORCA TERMINATED NORMALLY****
TOTAL RUN TIME: 0 days 0 hours 17 minutes 31 seconds 770 msec
