                         Program Version 3.0.3 - RELEASE   -
|  1> ! RI-MP2 RIJK def2-TZVP def2-TZVP/C def2-TZVP/JK TIGHTSCF
|  2> % maxcore 2000
|  3> % mp2 density relaxed end
|  4> *xyz 0 1
|  5>  C        0.8827813628     1.1889639394     0.1342089285
|  6>  N        0.0436256042     0.0010293030     0.0729040702
|  7>  C       -0.8650373873    -0.2206921711     1.0679604025
|  8>  O       -0.9903699262     0.4476738702     2.0731838600
|  9>  C        0.0210458102    -0.7791988888    -1.1564005533
| 10>  C       -0.8517697884    -0.1369356537    -2.2381502874
| 11>  C        1.3983367498    -1.2414109472    -1.6995416491
| 12>  O        0.9085472558    -2.5856528762    -1.8666679547
| 13>  C       -0.2255752833    -2.3065904079    -1.0253302580
| 14>  H        1.9370423350     0.9301034124    -0.0070965098
| 15>  H        0.5993936628     1.9246729327    -0.6279181596
| 16>  H        0.7472484839     1.6331648023     1.1200591518
| 17>  H       -1.4936194815    -1.1083964047     0.8654612068
| 18>  H       -0.5028914032     0.8712516089    -2.4821201064
| 19>  H       -0.8233453196    -0.7364516002    -3.1527537679
| 20>  H       -1.8906271091    -0.0662240112    -1.9003490529
| 21>  H        1.7397163053    -0.8021849093    -2.6426363385
| 22>  H        2.2025468527    -1.1927219156    -0.9534452220
| 23>  H       -0.0795286436    -2.6932424333    -0.0086461507
| 24>  H       -1.1593597203    -2.6986093898    -1.4411882798
| 25> *
| 26>
| 27>                          ****END OF INPUT****

CARTESIAN COORDINATES (ANGSTROEM)
---------------------------------
  C      0.882781    1.188964    0.134209
  N      0.043626    0.001029    0.072904
  C     -0.865037   -0.220692    1.067960
  O     -0.990370    0.447674    2.073184
  C      0.021046   -0.779199   -1.156401
  C     -0.851770   -0.136936   -2.238150
  C      1.398337   -1.241411   -1.699542
  O      0.908547   -2.585653   -1.866668
  C     -0.225575   -2.306590   -1.025330
  H      1.937042    0.930103   -0.007097
  H      0.599394    1.924673   -0.627918
  H      0.747248    1.633165    1.120059
  H     -1.493619   -1.108396    0.865461
  H     -0.502891    0.871252   -2.482120
  H     -0.823345   -0.736452   -3.152754
  H     -1.890627   -0.066224   -1.900349
  H      1.739716   -0.802185   -2.642636
  H      2.202547   -1.192722   -0.953445
  H     -0.079529   -2.693242   -0.008646
  H     -1.159360   -2.698609   -1.441188

 Total Charge           Charge          ....    0
 Multiplicity           Mult            ....    1
 Number of Electrons    NEL             ....   70
 Basis Dimension        Dim             ....  345

ORBITAL ENERGIES
----------------

  NO   OCC          E(Eh)            E(eV)
   0   2.0000     -20.567166      -559.6610
   1   2.0000     -20.525410      -558.5248
   2   2.0000     -15.596195      -424.3940
   3   2.0000     -11.351423      -308.8879
   4   2.0000     -11.298745      -307.4545
   5   2.0000     -11.297750      -307.4274
   6   2.0000     -11.295664      -307.3707
   7   2.0000     -11.265274      -306.5437
   8   2.0000     -11.238004      -305.8016
   9   2.0000      -1.401596       -38.1394
  10   2.0000      -1.385996       -37.7149
  11   2.0000      -1.259817       -34.2814
  12   2.0000      -1.059858       -28.8402
  13   2.0000      -0.978206       -26.6183
  14   2.0000      -0.947542       -25.7839
  15   2.0000      -0.933166       -25.3927
  16   2.0000      -0.827847       -22.5269
  17   2.0000      -0.757769       -20.6199
  18   2.0000      -0.733042       -19.9471
  19   2.0000      -0.692408       -18.8414
  20   2.0000      -0.664488       -18.0816
  21   2.0000      -0.641188       -17.4476
  22   2.0000      -0.619146       -16.8478
  23   2.0000      -0.614326       -16.7167
  24   2.0000      -0.600165       -16.3313
  25   2.0000      -0.576652       -15.6915
  26   2.0000      -0.565276       -15.3819
  27   2.0000      -0.553976       -15.0744
  28   2.0000      -0.547059       -14.8862
  29   2.0000      -0.534397       -14.5417
  30   2.0000      -0.493881       -13.4392
  31   2.0000      -0.474144       -12.9021
  32   2.0000      -0.437943       -11.9170
  33   2.0000      -0.430337       -11.7101
  34   2.0000      -0.380473       -10.3532
  35   0.0000       0.121438         3.3045
  36   0.0000       0.148676         4.0457
  37   0.0000       0.152559         4.1513
  38   0.0000       0.164258         4.4697
  39   0.0000       0.176263         4.7964

MULLIKEN ATOMIC CHARGES
-----------------------
   0 C :   -0.336923
   1 N :   -0.073099
   2 C :    0.127487
   3 O :   -0.359842
   4 C :    0.081938
   5 C :   -0.432506
   6 C :   -0.045329
   7 O :   -0.320363
   8 C :   -0.071635
   9 H :    0.135504
  10 H :    0.134972
  11 H :    0.187262
  12 H :    0.090287
  13 H :    0.136270
  14 H :    0.155584
  15 H :    0.140980
  16 H :    0.115528
  17 H :    0.100024
  18 H :    0.114108
  19 H :    0.119750
Sum of atomic charges:    0.0000000

LOEWDIN ATOMIC CHARGES
----------------------
   0 C :   -0.281091
   1 N :    0.178459
   2 C :   -0.413669
   3 O :    0.057273
   4 C :   -0.306862
   5 C :   -0.264525
   6 C :   -0.234585
   7 O :    0.124265
   8 C :   -0.242091
   9 H :    0.118155
  10 H :    0.117363
  11 H :    0.138016
  12 H :    0.120261
  13 H :    0.127234
  14 H :    0.136241
  15 H :    0.129989
  16 H :    0.122886
  17 H :    0.123940
  18 H :    0.125203
  19 H :    0.123537

  Mayer bond orders larger than 0.1
B(  0-C ,  1-N ) :   0.8643 B(  0-C ,  9-H ) :   0.9326 B(  0-C , 10-H ) :   0.9299
B(  0-C , 11-H ) :   0.9169 B(  1-N ,  2-C ) :   1.1234 B(  1-N ,  4-C ) :   0.9068
B(  2-C ,  3-O ) :   1.8992 B(  2-C , 12-H ) :   0.9320 B(  4-C ,  5-C ) :   0.9231
B(  4-C ,  6-C ) :   0.9382 B(  4-C ,  8-C ) :   0.9303 B(  5-C , 13-H ) :   0.9256
B(  5-C , 14-H ) :   0.9277 B(  5-C , 15-H ) :   0.9258 B(  6-C ,  7-O ) :   0.9433
B(  6-C , 16-H ) :   0.9137 B(  6-C , 17-H ) :   0.9020 B(  7-O ,  8-C ) :   0.9422
B(  8-C , 18-H ) :   0.9044 B(  8-C , 19-H ) :   0.9146

MP2 TOTAL ENERGY:     -439.559847153 Eh
FINAL SINGLE POINT ENERGY      -439.559847152781

DIPOLE MOMENT
-------------
                                X             Y             Z
Electronic contribution:     -0.54790      -2.51543       4.14992
Nuclear contribution   :      0.80303       2.69910      -5.23694
                        -----------------------------------------
Total Dipole Moment    :      0.25513       0.18367      -1.08702
                        -----------------------------------------
Magnitude (a.u.)       :      1.13156
Magnitude (Debye)      :      2.87620

                             ****ORCA TERMINATED NORMALLY****
TOTAL RUN TIME: 0 days 0 hours 22 minutes 4 seconds 679 msec
