                         Program Version 3.0.3 - RELEASE   -
|  1> ! RI-MP2 RIJK def2-TZVP def2-TZVP/C def2-TZVP/JK TIGHTSCF
|  2> % maxcore 2000
|  3> % mp2 density relaxed end
|  4> *xyz 0 1
|  5>  C       -0.0180093560     1.4448400648     0.0361968094
|  6>  N       -0.0053023036    -0.0096556591     0.0908843672
|  7>  N       -0.0973622391    -0.7099111573    -1.0470357208
|  8>  N       -0.0728001234    -1.9840899752    -0.7474337572
|  9>  C        0.0398769749    -2.1058427084     0.5944931959
| 10>  C        0.0882742120    -0.8456740349     1.1624213759
| 11>  C        0.1941201756    -0.3565378810     2.5547906598
| 12>  N        0.4232444737    -1.3267357970     3.4885354322
| 13>  O        0.0606855563     0.8200185213     2.8478209690
| 14>  H        0.8935971054     1.8471483659     0.4796270102
| 15>  H       -0.0846888663     1.7129890077    -1.0177335852
| 16>  H       -0.8700980140     1.8343664770     0.5930773345
| 17>  H        0.0608573185    -3.0746742743     1.0689564573
| 18>  H        0.7453187337    -2.2432230723     3.2299676439
| 19>  H        0.5925452323    -1.0149907471     4.4313972379
| 20> *
| 21>
| 22>                          ****END OF INPUT****

CARTESIAN COORDINATES (ANGSTROEM)
---------------------------------
  C     -0.018009    1.444840    0.036197
  N     -0.005302   -0.009656    0.090884
  N     -0.097362   -0.709911   -1.047036
  N     -0.072800   -1.984090   -0.747434
  C      0.039877   -2.105843    0.594493
  C      0.088274   -0.845674    1.162421
  C      0.194120   -0.356538    2.554791
  N      0.423244   -1.326736    3.488535
  O      0.060686    0.820019    2.847821
  H      0.893597    1.847148    0.479627
  H     -0.084689    1.712989   -1.017734
  H     -0.870098    1.834366    0.593077
  H      0.060857   -3.074674    1.068956
  H      0.745319   -2.243223    3.229968
  H      0.592545   -1.014991    4.431397

 Total Charge           Charge          ....    0
 Multiplicity           Mult            ....    1
 Number of Electrons    NEL             ....   66
 Basis Dimension        Dim             ....  315

ORBITAL ENERGIES
----------------

  NO   OCC          E(Eh)            E(eV)
   0   2.0000     -20.543123      -559.0068
   1   2.0000     -15.675311      -426.5469
   2   2.0000     -15.651697      -425.9043
   3   2.0000     -15.603995      -424.6063
   4   2.0000     -15.603109      -424.5822
   5   2.0000     -11.386198      -309.8342
   6   2.0000     -11.297074      -307.4090
   7   2.0000     -11.279014      -306.9176
   8   2.0000     -11.277314      -306.8713
   9   2.0000      -1.451781       -39.5050
  10   2.0000      -1.406670       -38.2774
  11   2.0000      -1.235044       -33.6073
  12   2.0000      -1.227658       -33.4063
  13   2.0000      -1.103517       -30.0282
  14   2.0000      -0.997354       -27.1394
  15   2.0000      -0.905516       -24.6403
  16   2.0000      -0.851405       -23.1679
  17   2.0000      -0.796233       -21.6666
  18   2.0000      -0.760913       -20.7055
  19   2.0000      -0.706734       -19.2312
  20   2.0000      -0.682648       -18.5758
  21   2.0000      -0.677584       -18.4380
  22   2.0000      -0.633793       -17.2464
  23   2.0000      -0.617963       -16.8156
  24   2.0000      -0.596566       -16.2334
  25   2.0000      -0.581118       -15.8130
  26   2.0000      -0.575426       -15.6581
  27   2.0000      -0.521033       -14.1780
  28   2.0000      -0.464564       -12.6414
  29   2.0000      -0.448534       -12.2052
  30   2.0000      -0.439565       -11.9612
  31   2.0000      -0.410848       -11.1797
  32   2.0000      -0.372115       -10.1258
  33   0.0000       0.087918         2.3924
  34   0.0000       0.117846         3.2068
  35   0.0000       0.152451         4.1484
  36   0.0000       0.162092         4.4107
  37   0.0000       0.164543         4.4774

MULLIKEN ATOMIC CHARGES
-----------------------
   0 C :   -0.305124
   1 N :    0.150786
   2 N :   -0.172363
   3 N :   -0.151617
   4 C :   -0.120870
   5 C :   -0.026329
   6 C :    0.278770
   7 N :   -0.469050
   8 O :   -0.353298
   9 H :    0.158462
  10 H :    0.174467
  11 H :    0.165758
  12 H :    0.139609
  13 H :    0.262504
  14 H :    0.268297
Sum of atomic charges:   -0.0000000

LOEWDIN ATOMIC CHARGES
----------------------
   0 C :   -0.258878
   1 N :    0.203426
   2 N :   -0.020602
   3 N :    0.014548
   4 C :   -0.251133
   5 C :   -0.208821
   6 C :   -0.453302
   7 N :   -0.004186
   8 O :    0.094888
   9 H :    0.130209
  10 H :    0.132713
  11 H :    0.131512
  12 H :    0.136426
  13 H :    0.174087
  14 H :    0.179115

  Mayer bond orders larger than 0.1
B(  0-C ,  1-N ) :   0.8416 B(  0-C ,  9-H ) :   0.9286 B(  0-C , 10-H ) :   0.9152
B(  0-C , 11-H ) :   0.9268 B(  1-N ,  2-N ) :   1.0284 B(  1-N ,  5-C ) :   1.2012
B(  2-N ,  3-N ) :   1.2381 B(  2-N ,  5-C ) :   0.1094 B(  3-N ,  4-C ) :   1.4231
B(  4-C ,  5-C ) :   1.3470 B(  4-C , 12-H ) :   0.9440 B(  5-C ,  6-C ) :   0.9111
B(  6-C ,  7-N ) :   1.2180 B(  6-C ,  8-O ) :   1.9357 B(  7-N , 13-H ) :   0.8669
B(  7-N , 14-H ) :   0.8573

MP2 TOTAL ENERGY:     -449.429133019 Eh
FINAL SINGLE POINT ENERGY      -449.429133019449

DIPOLE MOMENT
-------------
                                X             Y             Z
Electronic contribution:     -0.35676      -2.23625      -1.03316
Nuclear contribution   :      0.83282       2.10422       2.38009
                        -----------------------------------------
Total Dipole Moment    :      0.47606      -0.13204       1.34693
                        -----------------------------------------
Magnitude (a.u.)       :      1.43467
Magnitude (Debye)      :      3.64664

                             ****ORCA TERMINATED NORMALLY****
TOTAL RUN TIME: 0 days 0 hours 16 minutes 34 seconds 716 msec
