                         Program Version 3.0.3 - RELEASE   -
|  1> ! RI-MP2 RIJK def2-TZVP def2-TZVP/C def2-TZVP/JK TIGHTSCF
|  2> % maxcore 2000
|  3> % mp2 density relaxed end
|  4> *xyz 0 1
|  5>  N       -0.0077889951     1.4522560876     0.3089362438
|  6>  C       -0.0023421631     0.0377224989     0.0083181204
|  7>  C       -1.4067646601    -0.5494844638    -0.2015665119
|  8>  C       -1.1387412408    -1.8568525878    -0.9562346268
|  9>  O        0.1755387697    -1.7436069799    -1.5475549225
| 10>  C        0.7029214685    -0.4618381150    -1.2955401472
| 11>  C        0.4439626867     0.4700535478    -2.4169703207
| 12>  N        0.2149374316     1.2193084634    -3.2672268265
| 13>  H        0.9309135699     1.7916841163     0.4925240286
| 14>  H       -0.3692916240     1.9859830647    -0.4773793331
| 15>  H        0.4919826848    -0.4850936773     0.8347231330
| 16>  H       -1.9356778903    -0.7013490157     0.7405767871
| 17>  H       -1.9981996873     0.1429668092    -0.8103649504
| 18>  H       -1.1214413325    -2.7254859740    -0.2888576963
| 19>  H       -1.8708388181    -2.0467712219    -1.7477612093
| 20>  H        1.7873707101    -0.5531844226    -1.1731612080
| 21> *
| 22>
| 23>                          ****END OF INPUT****

CARTESIAN COORDINATES (ANGSTROEM)
---------------------------------
  N     -0.007789    1.452256    0.308936
  C     -0.002342    0.037722    0.008318
  C     -1.406765   -0.549484   -0.201567
  C     -1.138741   -1.856853   -0.956235
  O      0.175539   -1.743607   -1.547555
  C      0.702921   -0.461838   -1.295540
  C      0.443963    0.470054   -2.416970
  N      0.214937    1.219308   -3.267227
  H      0.930914    1.791684    0.492524
  H     -0.369292    1.985983   -0.477379
  H      0.491983   -0.485094    0.834723
  H     -1.935678   -0.701349    0.740577
  H     -1.998200    0.142967   -0.810365
  H     -1.121441   -2.725486   -0.288858
  H     -1.870839   -2.046771   -1.747761
  H      1.787371   -0.553184   -1.173161

 Total Charge           Charge          ....    0
 Multiplicity           Mult            ....    1
 Number of Electrons    NEL             ....   60
 Basis Dimension        Dim             ....  296

ORBITAL ENERGIES
----------------

  NO   OCC          E(Eh)            E(eV)
   0   2.0000     -20.582751      -560.0851
   1   2.0000     -15.579236      -423.9326
   2   2.0000     -15.563363      -423.5006
   3   2.0000     -11.335775      -308.4621
   4   2.0000     -11.294007      -307.3255
   5   2.0000     -11.290508      -307.2303
   6   2.0000     -11.276470      -306.8484
   7   2.0000     -11.244173      -305.9695
   8   2.0000      -1.408419       -38.3250
   9   2.0000      -1.227425       -33.3999
  10   2.0000      -1.209526       -32.9129
  11   2.0000      -1.053972       -28.6800
  12   2.0000      -1.031486       -28.0682
  13   2.0000      -0.874181       -23.7877
  14   2.0000      -0.831360       -22.6225
  15   2.0000      -0.741943       -20.1893
  16   2.0000      -0.712060       -19.3761
  17   2.0000      -0.677403       -18.4331
  18   2.0000      -0.653706       -17.7882
  19   2.0000      -0.633325       -17.2337
  20   2.0000      -0.588598       -16.0166
  21   2.0000      -0.570248       -15.5172
  22   2.0000      -0.567101       -15.4316
  23   2.0000      -0.536214       -14.5911
  24   2.0000      -0.515940       -14.0394
  25   2.0000      -0.502951       -13.6860
  26   2.0000      -0.477523       -12.9941
  27   2.0000      -0.470718       -12.8089
  28   2.0000      -0.452499       -12.3131
  29   2.0000      -0.407711       -11.0944
  30   0.0000       0.116490         3.1699
  31   0.0000       0.140271         3.8170
  32   0.0000       0.147674         4.0184
  33   0.0000       0.161331         4.3900
  34   0.0000       0.181702         4.9444

MULLIKEN ATOMIC CHARGES
-----------------------
   0 N :   -0.524821
   1 C :   -0.059606
   2 C :   -0.246443
   3 C :   -0.044942
   4 O :   -0.315371
   5 C :    0.251457
   6 C :   -0.259953
   7 N :   -0.044384
   8 H :    0.232729
   9 H :    0.248332
  10 H :    0.120620
  11 H :    0.142951
  12 H :    0.131681
  13 H :    0.114145
  14 H :    0.116343
  15 H :    0.137263
Sum of atomic charges:   -0.0000000

LOEWDIN ATOMIC CHARGES
----------------------
   0 N :   -0.127835
   1 C :   -0.304527
   2 C :   -0.237128
   3 C :   -0.273591
   4 O :    0.179623
   5 C :   -0.307790
   6 C :   -0.174257
   7 N :    0.064647
   8 H :    0.159351
   9 H :    0.162605
  10 H :    0.154965
  11 H :    0.144014
  12 H :    0.145392
  13 H :    0.125665
  14 H :    0.126725
  15 H :    0.162141

  Mayer bond orders larger than 0.1
B(  0-N ,  1-C ) :   0.9943 B(  0-N ,  8-H ) :   0.8936 B(  0-N ,  9-H ) :   0.8783
B(  1-C ,  2-C ) :   0.9284 B(  1-C ,  5-C ) :   0.8993 B(  1-C , 10-H ) :   0.9235
B(  2-C ,  3-C ) :   0.9563 B(  2-C , 11-H ) :   0.9285 B(  2-C , 12-H ) :   0.9170
B(  3-C ,  4-O ) :   0.9009 B(  3-C , 13-H ) :   0.9299 B(  3-C , 14-H ) :   0.9239
B(  4-O ,  5-C ) :   0.9509 B(  5-C ,  6-C ) :   0.8830 B(  5-C , 15-H ) :   0.9004
B(  6-C ,  7-N ) :   2.8434

MP2 TOTAL ENERGY:     -379.300862570 Eh
FINAL SINGLE POINT ENERGY      -379.300862569813

DIPOLE MOMENT
-------------
                                X             Y             Z
Electronic contribution:      2.87423       0.54866      -5.03859
Nuclear contribution   :     -2.80565      -1.00226       6.21400
                        -----------------------------------------
Total Dipole Moment    :      0.06858      -0.45360       1.17541
                        -----------------------------------------
Magnitude (a.u.)       :      1.26176
Magnitude (Debye)      :      3.20715

                             ****ORCA TERMINATED NORMALLY****
TOTAL RUN TIME: 0 days 0 hours 12 minutes 45 seconds 84 msec
