                         Program Version 3.0.3 - RELEASE   -
|  1> ! RI-MP2 RIJK def2-TZVP def2-TZVP/C def2-TZVP/JK TIGHTSCF
|  2> % maxcore 2000
|  3> % mp2 density relaxed end
|  4> *xyz 0 1
|  5>  C        0.5079461135     0.7778147332     0.4096127261
|  6>  N       -0.4002182418     0.3810708889    -0.6652368903
|  7>  C        0.2178369462    -0.4669079351    -1.6608347064
|  8>  C        0.5057480565    -1.8943605264    -1.1932928866
|  9>  O        0.0428735301    -2.3983401988    -0.2001025217
| 10>  O        1.3164727001    -2.5355139072    -2.0553776943
| 11>  C        1.6003414643    -3.9046321581    -1.7352905037
| 12>  H        0.9727854092    -0.0648171943     0.9452170855
| 13>  H        1.3065944440     1.4034439362    -0.0052162899
| 14>  H       -0.0410092411     1.3828289872     1.1367631237
| 15>  H       -1.1840919074    -0.1220217186    -0.2611632274
| 16>  H       -0.4338220094    -0.5491474050    -2.5413694148
| 17>  H        1.1499994530    -0.0149362130    -2.0160243288
| 18>  H        2.0941302753    -3.9775419355    -0.7631156911
| 19>  H        0.6793268233    -4.4923529636    -1.7055975835
| 20>  H        2.2581637843    -4.2650255801    -2.5261021668
| 21> *
| 22>
| 23>                          ****END OF INPUT****

CARTESIAN COORDINATES (ANGSTROEM)
---------------------------------
  C      0.507946    0.777815    0.409613
  N     -0.400218    0.381071   -0.665237
  C      0.217837   -0.466908   -1.660835
  C      0.505748   -1.894361   -1.193293
  O      0.042874   -2.398340   -0.200103
  O      1.316473   -2.535514   -2.055378
  C      1.600341   -3.904632   -1.735291
  H      0.972785   -0.064817    0.945217
  H      1.306594    1.403444   -0.005216
  H     -0.041009    1.382829    1.136763
  H     -1.184092   -0.122022   -0.261163
  H     -0.433822   -0.549147   -2.541369
  H      1.149999   -0.014936   -2.016024
  H      2.094130   -3.977542   -0.763116
  H      0.679327   -4.492353   -1.705598
  H      2.258164   -4.265026   -2.526102

 Total Charge           Charge          ....    0
 Multiplicity           Mult            ....    1
 Number of Electrons    NEL             ....   56
 Basis Dimension        Dim             ....  271

ORBITAL ENERGIES
----------------

  NO   OCC          E(Eh)            E(eV)
   0   2.0000     -20.606445      -560.7299
   1   2.0000     -20.546055      -559.0866
   2   2.0000     -15.547544      -423.0702
   3   2.0000     -11.377441      -309.5959
   4   2.0000     -11.288761      -307.1828
   5   2.0000     -11.269983      -306.6718
   6   2.0000     -11.242184      -305.9154
   7   2.0000      -1.463588       -39.8262
   8   2.0000      -1.363383       -37.0995
   9   2.0000      -1.210705       -32.9450
  10   2.0000      -1.013118       -27.5683
  11   2.0000      -0.948309       -25.8048
  12   2.0000      -0.873243       -23.7621
  13   2.0000      -0.777189       -21.1484
  14   2.0000      -0.716958       -19.5094
  15   2.0000      -0.686611       -18.6836
  16   2.0000      -0.679878       -18.5004
  17   2.0000      -0.648519       -17.6471
  18   2.0000      -0.614171       -16.7125
  19   2.0000      -0.591377       -16.0922
  20   2.0000      -0.573286       -15.5999
  21   2.0000      -0.547297       -14.8927
  22   2.0000      -0.532049       -14.4778
  23   2.0000      -0.516347       -14.0505
  24   2.0000      -0.510776       -13.8989
  25   2.0000      -0.467749       -12.7281
  26   2.0000      -0.459672       -12.5083
  27   2.0000      -0.380065       -10.3421
  28   0.0000       0.136628         3.7178
  29   0.0000       0.161902         4.4056
  30   0.0000       0.165344         4.4992
  31   0.0000       0.180497         4.9116
  32   0.0000       0.185397         5.0449

MULLIKEN ATOMIC CHARGES
-----------------------
   0 C :   -0.312032
   1 N :   -0.329644
   2 C :   -0.141913
   3 C :    0.284384
   4 O :   -0.344203
   5 O :   -0.258048
   6 C :   -0.216807
   7 H :    0.127707
   8 H :    0.125061
   9 H :    0.135080
  10 H :    0.212002
  11 H :    0.150785
  12 H :    0.141840
  13 H :    0.140449
  14 H :    0.139960
  15 H :    0.145382
Sum of atomic charges:    0.0000000

LOEWDIN ATOMIC CHARGES
----------------------
   0 C :   -0.350048
   1 N :   -0.044560
   2 C :   -0.293625
   3 C :   -0.492420
   4 O :    0.116365
   5 O :    0.226196
   6 C :   -0.309016
   7 H :    0.103055
   8 H :    0.113820
   9 H :    0.116207
  10 H :    0.173378
  11 H :    0.150192
  12 H :    0.147578
  13 H :    0.114122
  14 H :    0.113875
  15 H :    0.114879

  Mayer bond orders larger than 0.1
B(  0-C ,  1-N ) :   0.9318 B(  0-C ,  7-H ) :   0.9271 B(  0-C ,  8-H ) :   0.9371
B(  0-C ,  9-H ) :   0.9413 B(  1-N ,  2-C ) :   1.0021 B(  1-N , 10-H ) :   0.8795
B(  2-C ,  3-C ) :   0.9045 B(  2-C , 11-H ) :   0.9079 B(  2-C , 12-H ) :   0.9342
B(  3-C ,  4-O ) :   1.9178 B(  3-C ,  5-O ) :   1.1259 B(  5-O ,  6-C ) :   0.8382
B(  6-C , 13-H ) :   0.9392 B(  6-C , 14-H ) :   0.9395 B(  6-C , 15-H ) :   0.9335

MP2 TOTAL ENERGY:     -362.353117145 Eh
FINAL SINGLE POINT ENERGY      -362.353117145100

DIPOLE MOMENT
-------------
                                X             Y             Z
Electronic contribution:     -1.27920      -2.61461      -1.51387
Nuclear contribution   :      1.71185       2.24894       1.20674
                        -----------------------------------------
Total Dipole Moment    :      0.43265      -0.36567      -0.30713
                        -----------------------------------------
Magnitude (a.u.)       :      0.64438
Magnitude (Debye)      :      1.63788

                             ****ORCA TERMINATED NORMALLY****
TOTAL RUN TIME: 0 days 0 hours 7 minutes 33 seconds 831 msec
