                         Program Version 3.0.3 - RELEASE   -
|  1> ! RI-MP2 RIJK def2-TZVP def2-TZVP/C def2-TZVP/JK TIGHTSCF
|  2> % maxcore 2000
|  3> % mp2 density relaxed end
|  4> *xyz 0 1
|  5>  O       -0.1368766453     0.0057295282     0.1180473451
|  6>  C       -0.0193485316     1.1995671458     0.0174716753
|  7>  C        1.2930104278     1.9424811296    -0.0579094457
|  8>  C        1.3866431016     2.8098300698    -1.3286694197
|  9>  C        2.6115084777     3.7197649234    -1.3020271537
| 10>  C        2.7273163888     4.8355723707    -2.3865915610
| 11>  N        2.7028490541     5.8094655850    -1.2908345812
| 12>  C        2.5476188376     4.8909995708    -0.2841083801
| 13>  O        2.3898714340     4.9910894187     0.9050225951
| 14>  H       -0.9186181056     1.8595874455    -0.0313508262
| 15>  H        1.3618557401     2.6033040973     0.8169998935
| 16>  H        2.1105722401     1.2174335805    -0.0068941762
| 17>  H        1.4205076346     2.1668168042    -2.2163679576
| 18>  H        0.4812028750     3.4248723713    -1.4208723333
| 19>  H        3.5300027296     3.1352867016    -1.1949038860
| 20>  H        3.6529280315     4.8363711349    -2.9698751680
| 21>  H        1.8673435497     4.9022172406    -3.0616712956
| 22>  H        2.6823381303     6.8184874219    -1.2831794547
| 23> *
| 24>
| 25>                          ****END OF INPUT****

CARTESIAN COORDINATES (ANGSTROEM)
---------------------------------
  O     -0.136877    0.005730    0.118047
  C     -0.019349    1.199567    0.017472
  C      1.293010    1.942481   -0.057909
  C      1.386643    2.809830   -1.328669
  C      2.611508    3.719765   -1.302027
  C      2.727316    4.835572   -2.386592
  N      2.702849    5.809466   -1.290835
  C      2.547619    4.891000   -0.284108
  O      2.389871    4.991089    0.905023
  H     -0.918618    1.859587   -0.031351
  H      1.361856    2.603304    0.817000
  H      2.110572    1.217434   -0.006894
  H      1.420508    2.166817   -2.216368
  H      0.481203    3.424872   -1.420872
  H      3.530003    3.135287   -1.194904
  H      3.652928    4.836371   -2.969875
  H      1.867344    4.902217   -3.061671
  H      2.682338    6.818487   -1.283179

 Total Charge           Charge          ....    0
 Multiplicity           Mult            ....    1
 Number of Electrons    NEL             ....   68
 Basis Dimension        Dim             ....  333

ORBITAL ENERGIES
----------------

  NO   OCC          E(Eh)            E(eV)
   0   2.0000     -20.556298      -559.3653
   1   2.0000     -20.535237      -558.7922
   2   2.0000     -15.595784      -424.3829
   3   2.0000     -11.359636      -309.1114
   4   2.0000     -11.331301      -308.3404
   5   2.0000     -11.291731      -307.2636
   6   2.0000     -11.265859      -306.5596
   7   2.0000     -11.257977      -306.3451
   8   2.0000     -11.241836      -305.9059
   9   2.0000      -1.396993       -38.0141
  10   2.0000      -1.395003       -37.9600
  11   2.0000      -1.279154       -34.8075
  12   2.0000      -1.098864       -29.9016
  13   2.0000      -1.010189       -27.4886
  14   2.0000      -0.919474       -25.0202
  15   2.0000      -0.887650       -24.1542
  16   2.0000      -0.794845       -21.6288
  17   2.0000      -0.773782       -21.0557
  18   2.0000      -0.693457       -18.8699
  19   2.0000      -0.685953       -18.6657
  20   2.0000      -0.672839       -18.3089
  21   2.0000      -0.651929       -17.7399
  22   2.0000      -0.634146       -17.2560
  23   2.0000      -0.614709       -16.7271
  24   2.0000      -0.573126       -15.5955
  25   2.0000      -0.558358       -15.1937
  26   2.0000      -0.553024       -15.0485
  27   2.0000      -0.535840       -14.5809
  28   2.0000      -0.525783       -14.3073
  29   2.0000      -0.506707       -13.7882
  30   2.0000      -0.490265       -13.3408
  31   2.0000      -0.423293       -11.5184
  32   2.0000      -0.415922       -11.3178
  33   2.0000      -0.410157       -11.1609
  34   0.0000       0.122379         3.3301
  35   0.0000       0.131728         3.5845
  36   0.0000       0.140199         3.8150
  37   0.0000       0.149964         4.0807
  38   0.0000       0.160193         4.3591

MULLIKEN ATOMIC CHARGES
-----------------------
   0 O :   -0.264184
   1 C :    0.089045
   2 C :   -0.163653
   3 C :   -0.330209
   4 C :   -0.034612
   5 C :   -0.101755
   6 N :   -0.320989
   7 C :    0.203692
   8 O :   -0.322555
   9 H :    0.071436
  10 H :    0.166768
  11 H :    0.119176
  12 H :    0.138289
  13 H :    0.128889
  14 H :    0.130312
  15 H :    0.124616
  16 H :    0.125928
  17 H :    0.239806
Sum of atomic charges:   -0.0000000

LOEWDIN ATOMIC CHARGES
----------------------
   0 O :    0.130380
   1 C :   -0.297499
   2 C :   -0.254484
   3 C :   -0.239294
   4 C :   -0.193071
   5 C :   -0.222683
   6 N :    0.122602
   7 C :   -0.428568
   8 O :    0.097974
   9 H :    0.109380
  10 H :    0.163043
  11 H :    0.145326
  12 H :    0.143754
  13 H :    0.145430
  14 H :    0.158401
  15 H :    0.123520
  16 H :    0.125368
  17 H :    0.170420

  Mayer bond orders larger than 0.1
B(  0-O ,  1-C ) :   2.0041 B(  1-C ,  2-C ) :   0.8747 B(  1-C ,  9-H ) :   0.9404
B(  2-C ,  3-C ) :   0.8977 B(  2-C , 10-H ) :   0.9088 B(  2-C , 11-H ) :   0.9041
B(  3-C ,  4-C ) :   0.8966 B(  3-C , 12-H ) :   0.9275 B(  3-C , 13-H ) :   0.9290
B(  4-C ,  5-C ) :   0.9049 B(  4-C ,  7-C ) :   0.8483 B(  4-C , 14-H ) :   0.9046
B(  5-C ,  6-N ) :   0.9066 B(  5-C , 15-H ) :   0.9274 B(  5-C , 16-H ) :   0.9275
B(  6-N ,  7-C ) :   1.1833 B(  6-N , 17-H ) :   0.8581 B(  7-C ,  8-O ) :   1.9870

MP2 TOTAL ENERGY:     -438.388689506 Eh
FINAL SINGLE POINT ENERGY      -438.388689506015

DIPOLE MOMENT
-------------
                                X             Y             Z
Electronic contribution:     -0.32306       0.37959       3.91715
Nuclear contribution   :      0.77137       0.77957      -5.50027
                        -----------------------------------------
Total Dipole Moment    :      0.44831       1.15916      -1.58312
                        -----------------------------------------
Magnitude (a.u.)       :      2.01269
Magnitude (Debye)      :      5.11584

                             ****ORCA TERMINATED NORMALLY****
TOTAL RUN TIME: 0 days 0 hours 15 minutes 11 seconds 335 msec
