                         Program Version 3.0.3 - RELEASE   -
|  1> ! RI-MP2 RIJK def2-TZVP def2-TZVP/C def2-TZVP/JK TIGHTSCF
|  2> % maxcore 2000
|  3> % mp2 density relaxed end
|  4> *xyz 0 1
|  5>  C        0.8220838295    -0.4891041828     1.2879371652
|  6>  C        0.3183350481     0.1025371399    -0.0014948845
|  7>  N        0.1869117769     1.3708780196    -0.0884740797
|  8>  N        0.0201332282    -0.7734187712    -1.0394494014
|  9>  C        0.0958561764    -2.1531748566    -1.1350060395
| 10>  N       -0.2686205124    -2.7197577555    -2.2909265681
| 11>  N       -0.0840234456    -4.0186807423    -2.0611409357
| 12>  N        0.3646511945    -4.3499165997    -0.8688187504
| 13>  C        0.4928012386    -3.1772961476    -0.2441324011
| 14>  H        0.0892429707    -1.1747741870     1.7249936599
| 15>  H        1.7542729231    -1.0422368297     1.1352330659
| 16>  H        1.0026288236     0.3301788270     1.9816159228
| 17>  H       -0.1610736663     1.6552984809    -1.0073429012
| 18>  H       -0.3152944335    -0.3421301995    -1.8891642505
| 19>  H       -0.2795783493    -4.7083959140    -2.7676452604
| 20>  H        0.8482682374    -3.1351096916     0.7686249884
| 21> *
| 22>
| 23>                          ****END OF INPUT****

CARTESIAN COORDINATES (ANGSTROEM)
---------------------------------
  C      0.822084   -0.489104    1.287937
  C      0.318335    0.102537   -0.001495
  N      0.186912    1.370878   -0.088474
  N      0.020133   -0.773419   -1.039449
  C      0.095856   -2.153175   -1.135006
  N     -0.268621   -2.719758   -2.290927
  N     -0.084023   -4.018681   -2.061141
  N      0.364651   -4.349917   -0.868819
  C      0.492801   -3.177296   -0.244132
  H      0.089243   -1.174774    1.724994
  H      1.754273   -1.042237    1.135233
  H      1.002629    0.330179    1.981616
  H     -0.161074    1.655298   -1.007343
  H     -0.315294   -0.342130   -1.889164
  H     -0.279578   -4.708396   -2.767645
  H      0.848268   -3.135110    0.768625

 Total Charge           Charge          ....    0
 Multiplicity           Mult            ....    1
 Number of Electrons    NEL             ....   66
 Basis Dimension        Dim             ....  321

ORBITAL ENERGIES
----------------

  NO   OCC          E(Eh)            E(eV)
   0   2.0000     -15.686130      -426.8413
   1   2.0000     -15.632867      -425.3919
   2   2.0000     -15.613086      -424.8537
   3   2.0000     -15.606625      -424.6779
   4   2.0000     -15.530085      -422.5951
   5   2.0000     -11.331511      -308.3461
   6   2.0000     -11.326326      -308.2050
   7   2.0000     -11.272611      -306.7433
   8   2.0000     -11.239123      -305.8321
   9   2.0000      -1.458982       -39.7009
  10   2.0000      -1.301640       -35.4194
  11   2.0000      -1.210279       -32.9334
  12   2.0000      -1.170697       -31.8563
  13   2.0000      -1.094052       -29.7707
  14   2.0000      -1.003970       -27.3194
  15   2.0000      -0.876140       -23.8410
  16   2.0000      -0.866600       -23.5814
  17   2.0000      -0.801460       -21.8088
  18   2.0000      -0.743717       -20.2376
  19   2.0000      -0.702760       -19.1231
  20   2.0000      -0.689673       -18.7670
  21   2.0000      -0.669114       -18.2075
  22   2.0000      -0.637806       -17.3556
  23   2.0000      -0.611932       -16.6515
  24   2.0000      -0.566072       -15.4036
  25   2.0000      -0.557739       -15.1769
  26   2.0000      -0.539359       -14.6767
  27   2.0000      -0.518662       -14.1135
  28   2.0000      -0.484459       -13.1828
  29   2.0000      -0.434376       -11.8200
  30   2.0000      -0.429677       -11.6921
  31   2.0000      -0.405128       -11.0241
  32   2.0000      -0.329315        -8.9611
  33   0.0000       0.121102         3.2953
  34   0.0000       0.128383         3.4935
  35   0.0000       0.135158         3.6778
  36   0.0000       0.153655         4.1812
  37   0.0000       0.171234         4.6595

MULLIKEN ATOMIC CHARGES
-----------------------
   0 C :   -0.389709
   1 C :    0.143161
   2 N :   -0.372319
   3 N :   -0.314472
   4 C :    0.203319
   5 N :   -0.220815
   6 N :    0.002892
   7 N :   -0.174131
   8 C :   -0.182252
   9 H :    0.146242
  10 H :    0.146252
  11 H :    0.167952
  12 H :    0.187776
  13 H :    0.232976
  14 H :    0.272718
  15 H :    0.150410
Sum of atomic charges:    0.0000000

LOEWDIN ATOMIC CHARGES
----------------------
   0 C :   -0.264076
   1 C :   -0.391026
   2 N :   -0.078756
   3 N :    0.148373
   4 C :   -0.347002
   5 N :    0.030406
   6 N :    0.061881
   7 N :    0.021796
   8 C :   -0.271693
   9 H :    0.134005
  10 H :    0.134018
  11 H :    0.141910
  12 H :    0.151898
  13 H :    0.199926
  14 H :    0.189980
  15 H :    0.138360

  Mayer bond orders larger than 0.1
B(  0-C ,  1-C ) :   0.8964 B(  0-C ,  9-H ) :   0.9246 B(  0-C , 10-H ) :   0.9246
B(  0-C , 11-H ) :   0.9291 B(  1-C ,  2-N ) :   2.0346 B(  1-C ,  3-N ) :   1.0610
B(  2-N , 12-H ) :   0.8656 B(  3-N ,  4-C ) :   1.0292 B(  3-N , 13-H ) :   0.8566
B(  4-C ,  5-N ) :   1.4599 B(  4-C ,  8-C ) :   1.3337 B(  5-N ,  6-N ) :   1.1308
B(  6-N ,  7-N ) :   1.1567 B(  6-N , 14-H ) :   0.8734 B(  7-N ,  8-C ) :   1.5050
B(  8-C , 15-H ) :   0.9314

MP2 TOTAL ENERGY:     -429.535126821 Eh
FINAL SINGLE POINT ENERGY      -429.535126820627

DIPOLE MOMENT
-------------
                                X             Y             Z
Electronic contribution:     -1.48810      -4.57040      -5.22475
Nuclear contribution   :      1.34571       3.85567       4.66280
                        -----------------------------------------
Total Dipole Moment    :     -0.14239      -0.71473      -0.56194
                        -----------------------------------------
Magnitude (a.u.)       :      0.92027
Magnitude (Debye)      :      2.33913

                             ****ORCA TERMINATED NORMALLY****
TOTAL RUN TIME: 0 days 0 hours 15 minutes 19 seconds 480 msec
