                         Program Version 3.0.3 - RELEASE   -
|  1> ! RI-MP2 RIJK def2-TZVP def2-TZVP/C def2-TZVP/JK TIGHTSCF
|  2> % maxcore 2000
|  3> % mp2 density relaxed end
|  4> *xyz 0 1
|  5>  C        0.0193768865     1.5669404982     0.1716007724
|  6>  C        0.1118421441     0.0562436912     0.0506804802
|  7>  C        0.8062816652    -0.4690958158    -1.2283701965
|  8>  C        1.5875530937    -1.7131190887    -0.7387701290
|  9>  C        1.2656969256    -1.7783375062     0.7733816414
| 10>  C        2.4077669443    -2.2291763740     1.6665858788
| 11>  O        0.8926229797    -0.4515829332     1.1259639265
| 12>  H        1.0179033698     2.0130800404     0.1255791578
| 13>  H       -0.5846437216     1.9798274896    -0.6424428018
| 14>  H       -0.4419215795     1.8524946262     1.1211730403
| 15>  H       -0.9022551346    -0.3782011369     0.1100555747
| 16>  H        0.0822513596    -0.7011978559    -2.0137495627
| 17>  H        1.4875753929     0.2895126438    -1.6254113274
| 18>  H        1.2937021072    -2.6317397369    -1.2532600094
| 19>  H        2.6635725575    -1.5837438021    -0.8895038271
| 20>  H        0.3977845623    -2.4449780898     0.9248972785
| 21>  H        3.2733407101    -1.5718297286     1.5366144035
| 22>  H        2.1106698109    -2.2033321650     2.7187702425
| 23>  H        2.7068455566    -3.2523719664     1.4183770673
| 24> *
| 25>
| 26>                          ****END OF INPUT****

CARTESIAN COORDINATES (ANGSTROEM)
---------------------------------
  C      0.019377    1.566940    0.171601
  C      0.111842    0.056244    0.050680
  C      0.806282   -0.469096   -1.228370
  C      1.587553   -1.713119   -0.738770
  C      1.265697   -1.778338    0.773382
  C      2.407767   -2.229176    1.666586
  O      0.892623   -0.451583    1.125964
  H      1.017903    2.013080    0.125579
  H     -0.584644    1.979827   -0.642443
  H     -0.441922    1.852495    1.121173
  H     -0.902255   -0.378201    0.110056
  H      0.082251   -0.701198   -2.013750
  H      1.487575    0.289513   -1.625411
  H      1.293702   -2.631740   -1.253260
  H      2.663573   -1.583744   -0.889504
  H      0.397785   -2.444978    0.924897
  H      3.273341   -1.571830    1.536614
  H      2.110670   -2.203332    2.718770
  H      2.706846   -3.252372    1.418377

 Total Charge           Charge          ....    0
 Multiplicity           Mult            ....    1
 Number of Electrons    NEL             ....   56
 Basis Dimension        Dim             ....  289

ORBITAL ENERGIES
----------------

  NO   OCC          E(Eh)            E(eV)
   0   2.0000     -20.542785      -558.9976
   1   2.0000     -11.272183      -306.7317
   2   2.0000     -11.272160      -306.7311
   3   2.0000     -11.219819      -305.3068
   4   2.0000     -11.219253      -305.2914
   5   2.0000     -11.210628      -305.0567
   6   2.0000     -11.210626      -305.0566
   7   2.0000      -1.373716       -37.3807
   8   2.0000      -1.051050       -28.6005
   9   2.0000      -1.047381       -28.5007
  10   2.0000      -0.962897       -26.2017
  11   2.0000      -0.872184       -23.7333
  12   2.0000      -0.787944       -21.4410
  13   2.0000      -0.785270       -21.3683
  14   2.0000      -0.676635       -18.4122
  15   2.0000      -0.641074       -17.4445
  16   2.0000      -0.625494       -17.0206
  17   2.0000      -0.582080       -15.8392
  18   2.0000      -0.574604       -15.6358
  19   2.0000      -0.554591       -15.0912
  20   2.0000      -0.534580       -14.5467
  21   2.0000      -0.521108       -14.1801
  22   2.0000      -0.501135       -13.6366
  23   2.0000      -0.489551       -13.3214
  24   2.0000      -0.467394       -12.7184
  25   2.0000      -0.455944       -12.4069
  26   2.0000      -0.453284       -12.3345
  27   2.0000      -0.411268       -11.1912
  28   0.0000       0.137923         3.7531
  29   0.0000       0.152596         4.1523
  30   0.0000       0.162718         4.4278
  31   0.0000       0.175936         4.7875
  32   0.0000       0.204937         5.5766

MULLIKEN ATOMIC CHARGES
-----------------------
   0 C :   -0.374853
   1 C :    0.083706
   2 C :   -0.229603
   3 C :   -0.229394
   4 C :    0.083534
   5 C :   -0.374866
   6 O :   -0.303779
   7 H :    0.123574
   8 H :    0.122493
   9 H :    0.137901
  10 H :    0.061863
  11 H :    0.116639
  12 H :    0.110157
  13 H :    0.116668
  14 H :    0.110137
  15 H :    0.061855
  16 H :    0.123560
  17 H :    0.137904
  18 H :    0.122501
Sum of atomic charges:    0.0000000

LOEWDIN ATOMIC CHARGES
----------------------
   0 C :   -0.295131
   1 C :   -0.342816
   2 C :   -0.237177
   3 C :   -0.237155
   4 C :   -0.342770
   5 C :   -0.295145
   6 O :    0.190625
   7 H :    0.125132
   8 H :    0.126296
   9 H :    0.126391
  10 H :    0.132161
  11 H :    0.133491
  12 H :    0.136330
  13 H :    0.133489
  14 H :    0.136319
  15 H :    0.132152
  16 H :    0.125127
  17 H :    0.126390
  18 H :    0.126292

  Mayer bond orders larger than 0.1
B(  0-C ,  1-C ) :   0.9058 B(  0-C ,  7-H ) :   0.9380 B(  0-C ,  8-H ) :   0.9339
B(  0-C ,  9-H ) :   0.9398 B(  1-C ,  2-C ) :   0.9348 B(  1-C ,  6-O ) :   0.9530
B(  1-C , 10-H ) :   0.9271 B(  2-C ,  3-C ) :   0.9509 B(  2-C , 11-H ) :   0.9225
B(  2-C , 12-H ) :   0.9276 B(  3-C ,  4-C ) :   0.9347 B(  3-C , 13-H ) :   0.9225
B(  3-C , 14-H ) :   0.9277 B(  4-C ,  5-C ) :   0.9058 B(  4-C ,  6-O ) :   0.9532
B(  4-C , 15-H ) :   0.9271 B(  5-C , 16-H ) :   0.9380 B(  5-C , 17-H ) :   0.9399
B(  5-C , 18-H ) :   0.9339

MP2 TOTAL ENERGY:     -310.406887100 Eh
FINAL SINGLE POINT ENERGY      -310.406887099669

DIPOLE MOMENT
-------------
                                X             Y             Z
Electronic contribution:     -0.91932      -0.09983       1.21436
Nuclear contribution   :      0.83458      -0.13987      -1.68773
                        -----------------------------------------
Total Dipole Moment    :     -0.08474      -0.23970      -0.47338
                        -----------------------------------------
Magnitude (a.u.)       :      0.53733
Magnitude (Debye)      :      1.36578

                             ****ORCA TERMINATED NORMALLY****
TOTAL RUN TIME: 0 days 0 hours 9 minutes 55 seconds 144 msec
