                         Program Version 3.0.3 - RELEASE   -
|  1> ! RI-MP2 RIJK def2-TZVP def2-TZVP/C def2-TZVP/JK TIGHTSCF
|  2> % maxcore 2000
|  3> % mp2 density relaxed end
|  4> *xyz 0 1
|  5>  O        0.2130703964     1.3432451568    -0.3618201696
|  6>  C        0.0374848987     0.0008297436     0.0814001214
|  7>  C       -1.3860678816    -0.4433513820     0.1024488053
|  8>  C       -2.3658216211    -0.7678108685    -1.0050223171
|  9>  C       -2.0062197080    -1.8250413041     0.0447569053
| 10>  C       -3.0817320586    -1.5277409394     1.1165817133
| 11>  C       -4.3989079313    -1.2148749351     0.3645945894
| 12>  C       -3.5702496521    -0.0924735208    -0.3090199391
| 13>  C       -2.6314325983    -0.0248840933     0.9560348201
| 14>  H       -0.2791003186     1.9121829870     0.2384940362
| 15>  H        0.6025010539    -0.6198081018    -0.6236232075
| 16>  H        0.4936217983    -0.1450620685     1.0748276408
| 17>  H       -2.1729422376    -0.9009776237    -2.0615187829
| 18>  H       -1.5361907465    -2.7662824609    -0.2101165598
| 19>  H       -3.0509136057    -2.0758500053     2.0573910737
| 20>  H       -4.8403276542    -1.9922601681    -0.2669770557
| 21>  H       -5.1587829948    -0.8053588858     1.0385492250
| 22>  H       -4.0224536150     0.7809031715    -0.7770508251
| 23>  H       -2.6972750042     0.7278432582     1.7393005064
| 24> *
| 25>
| 26>                          ****END OF INPUT****

CARTESIAN COORDINATES (ANGSTROEM)
---------------------------------
  O      0.213070    1.343245   -0.361820
  C      0.037485    0.000830    0.081400
  C     -1.386068   -0.443351    0.102449
  C     -2.365822   -0.767811   -1.005022
  C     -2.006220   -1.825041    0.044757
  C     -3.081732   -1.527741    1.116582
  C     -4.398908   -1.214875    0.364595
  C     -3.570250   -0.092474   -0.309020
  C     -2.631433   -0.024884    0.956035
  H     -0.279100    1.912183    0.238494
  H      0.602501   -0.619808   -0.623623
  H      0.493622   -0.145062    1.074828
  H     -2.172942   -0.900978   -2.061519
  H     -1.536191   -2.766282   -0.210117
  H     -3.050914   -2.075850    2.057391
  H     -4.840328   -1.992260   -0.266977
  H     -5.158783   -0.805359    1.038549
  H     -4.022454    0.780903   -0.777051
  H     -2.697275    0.727843    1.739301

 Total Charge           Charge          ....    0
 Multiplicity           Mult            ....    1
 Number of Electrons    NEL             ....   66
 Basis Dimension        Dim             ....  339

ORBITAL ENERGIES
----------------

  NO   OCC          E(Eh)            E(eV)
   0   2.0000     -20.551362      -559.2310
   1   2.0000     -11.277154      -306.8670
   2   2.0000     -11.235391      -305.7305
   3   2.0000     -11.234098      -305.6953
   4   2.0000     -11.233861      -305.6889
   5   2.0000     -11.232705      -305.6575
   6   2.0000     -11.231838      -305.6338
   7   2.0000     -11.228831      -305.5520
   8   2.0000     -11.218755      -305.2779
   9   2.0000      -1.354364       -36.8541
  10   2.0000      -1.249795       -34.0087
  11   2.0000      -1.045858       -28.4593
  12   2.0000      -0.944485       -25.7008
  13   2.0000      -0.933656       -25.4061
  14   2.0000      -0.901156       -24.5217
  15   2.0000      -0.780439       -21.2368
  16   2.0000      -0.736620       -20.0444
  17   2.0000      -0.708956       -19.2917
  18   2.0000      -0.702071       -19.1043
  19   2.0000      -0.666377       -18.1330
  20   2.0000      -0.628693       -17.1076
  21   2.0000      -0.617462       -16.8020
  22   2.0000      -0.588863       -16.0238
  23   2.0000      -0.564023       -15.3479
  24   2.0000      -0.541082       -14.7236
  25   2.0000      -0.517869       -14.0919
  26   2.0000      -0.480869       -13.0851
  27   2.0000      -0.478337       -13.0162
  28   2.0000      -0.451258       -12.2793
  29   2.0000      -0.422206       -11.4888
  30   2.0000      -0.408839       -11.1251
  31   2.0000      -0.376735       -10.2515
  32   2.0000      -0.357843        -9.7374
  33   0.0000       0.132804         3.6138
  34   0.0000       0.150284         4.0894
  35   0.0000       0.161576         4.3967
  36   0.0000       0.173600         4.7239
  37   0.0000       0.191739         5.2175

MULLIKEN ATOMIC CHARGES
-----------------------
   0 O :   -0.463986
   1 C :    0.023040
   2 C :   -0.079471
   3 C :   -0.163727
   4 C :   -0.202352
   5 C :   -0.055399
   6 C :   -0.240389
   7 C :   -0.063914
   8 C :   -0.164816
   9 H :    0.311191
  10 H :    0.108853
  11 H :    0.106243
  12 H :    0.138183
  13 H :    0.137106
  14 H :    0.126808
  15 H :    0.110841
  16 H :    0.110140
  17 H :    0.127124
  18 H :    0.134526
Sum of atomic charges:   -0.0000000

LOEWDIN ATOMIC CHARGES
----------------------
   0 O :   -0.050817
   1 C :   -0.317034
   2 C :   -0.166296
   3 C :   -0.115492
   4 C :   -0.116714
   5 C :   -0.155028
   6 C :   -0.206337
   7 C :   -0.153871
   8 C :   -0.088146
   9 H :    0.172168
  10 H :    0.138235
  11 H :    0.123827
  12 H :    0.138988
  13 H :    0.137788
  14 H :    0.133091
  15 H :    0.124878
  16 H :    0.137075
  17 H :    0.133795
  18 H :    0.129889

  Mayer bond orders larger than 0.1
B(  0-O ,  1-C ) :   0.8996 B(  0-O ,  9-H ) :   0.8494 B(  1-C ,  2-C ) :   0.8811
B(  1-C , 10-H ) :   0.9272 B(  1-C , 11-H ) :   0.9425 B(  2-C ,  3-C ) :   0.8219
B(  2-C ,  4-C ) :   0.7871 B(  2-C ,  8-C ) :   0.9195 B(  3-C ,  4-C ) :   0.8955
B(  3-C ,  7-C ) :   0.8939 B(  3-C , 12-H ) :   0.9219 B(  4-C ,  5-C ) :   0.8802
B(  4-C , 13-H ) :   0.9304 B(  5-C ,  6-C ) :   0.9346 B(  5-C ,  8-C ) :   0.9562
B(  5-C , 14-H ) :   0.9170 B(  6-C ,  7-C ) :   0.9344 B(  6-C , 15-H ) :   0.9156
B(  6-C , 16-H ) :   0.9193 B(  7-C ,  8-C ) :   0.9596 B(  7-C , 17-H ) :   0.9191
B(  8-C , 18-H ) :   0.9099

MP2 TOTAL ENERGY:     -385.135512167 Eh
FINAL SINGLE POINT ENERGY      -385.135512167372

DIPOLE MOMENT
-------------
                                X             Y             Z
Electronic contribution:      1.43719       1.04793      -0.61024
Nuclear contribution   :     -1.83778      -1.25139       1.09248
                        -----------------------------------------
Total Dipole Moment    :     -0.40058      -0.20346       0.48225
                        -----------------------------------------
Magnitude (a.u.)       :      0.65911
Magnitude (Debye)      :      1.67532

                             ****ORCA TERMINATED NORMALLY****
TOTAL RUN TIME: 0 days 0 hours 17 minutes 39 seconds 725 msec
