                         Program Version 3.0.3 - RELEASE   -
|  1> ! RI-MP2 RIJK def2-TZVP def2-TZVP/C def2-TZVP/JK TIGHTSCF
|  2> % maxcore 2000
|  3> % mp2 density relaxed end
|  4> *xyz 0 1
|  5>  O        0.0451103356    -0.0725036461     0.0027473586
|  6>  C        0.0021059723     1.1269224568     0.0061740148
|  7>  C        1.2112132035     1.9598320413     0.0002688169
|  8>  N        2.1777000542     2.5925009797    -0.0045402750
|  9>  N       -1.1849868278     1.8610923831     0.0161290801
| 10>  C       -1.3885119618     3.2364212354     0.0211409166
| 11>  N       -2.6545687779     3.5063530092     0.0304008812
| 12>  N       -3.3476430494     2.2905085922     0.0319000713
| 13>  C       -2.4705968384     1.3375485868     0.0234141087
| 14>  H       -0.5787031314     3.9489753985     0.0175473655
| 15>  H       -2.6594966689     0.2767154631     0.0218848613
| 16> *
| 17>
| 18>                          ****END OF INPUT****

CARTESIAN COORDINATES (ANGSTROEM)
---------------------------------
  O      0.045110   -0.072504    0.002747
  C      0.002106    1.126922    0.006174
  C      1.211213    1.959832    0.000269
  N      2.177700    2.592501   -0.004540
  N     -1.184987    1.861092    0.016129
  C     -1.388512    3.236421    0.021141
  N     -2.654569    3.506353    0.030401
  N     -3.347643    2.290509    0.031900
  C     -2.470597    1.337549    0.023414
  H     -0.578703    3.948975    0.017547
  H     -2.659497    0.276715    0.021885

 Total Charge           Charge          ....    0
 Multiplicity           Mult            ....    1
 Number of Electrons    NEL             ....   62
 Basis Dimension        Dim             ....  291

ORBITAL ENERGIES
----------------

  NO   OCC          E(Eh)            E(eV)
   0   2.0000     -20.631214      -561.4039
   1   2.0000     -15.695677      -427.1011
   2   2.0000     -15.651137      -425.8891
   3   2.0000     -15.625847      -425.2009
   4   2.0000     -15.624980      -425.1773
   5   2.0000     -11.475409      -312.2618
   6   2.0000     -11.353221      -308.9369
   7   2.0000     -11.348925      -308.8199
   8   2.0000     -11.337951      -308.5213
   9   2.0000      -1.498321       -40.7714
  10   2.0000      -1.435423       -39.0598
  11   2.0000      -1.291556       -35.1450
  12   2.0000      -1.275737       -34.7146
  13   2.0000      -1.145674       -31.1754
  14   2.0000      -1.022307       -27.8184
  15   2.0000      -0.912872       -24.8405
  16   2.0000      -0.867106       -23.5952
  17   2.0000      -0.828489       -22.5443
  18   2.0000      -0.740409       -20.1476
  19   2.0000      -0.710209       -19.3258
  20   2.0000      -0.696272       -18.9465
  21   2.0000      -0.659812       -17.9544
  22   2.0000      -0.631967       -17.1967
  23   2.0000      -0.618314       -16.8252
  24   2.0000      -0.568058       -15.4576
  25   2.0000      -0.533258       -14.5107
  26   2.0000      -0.529689       -14.4136
  27   2.0000      -0.509539       -13.8653
  28   2.0000      -0.476109       -12.9556
  29   2.0000      -0.470771       -12.8103
  30   2.0000      -0.414242       -11.2721
  31   0.0000       0.018629         0.5069
  32   0.0000       0.113253         3.0818
  33   0.0000       0.123196         3.3523
  34   0.0000       0.133458         3.6316
  35   0.0000       0.155025         4.2184

MULLIKEN ATOMIC CHARGES
-----------------------
   0 O :   -0.227160
   1 C :    0.393330
   2 C :   -0.167714
   3 N :   -0.017764
   4 N :   -0.084944
   5 C :   -0.006658
   6 N :   -0.145072
   7 N :   -0.140779
   8 C :    0.009274
   9 H :    0.195518
  10 H :    0.191969
Sum of atomic charges:   -0.0000000

LOEWDIN ATOMIC CHARGES
----------------------
   0 O :    0.217126
   1 C :   -0.366946
   2 C :   -0.126037
   3 N :    0.127128
   4 N :    0.256316
   5 C :   -0.265840
   6 N :    0.054082
   7 N :    0.056821
   8 C :   -0.253013
   9 H :    0.150758
  10 H :    0.149605

  Mayer bond orders larger than 0.1
B(  0-O ,  1-C ) :   1.9619 B(  1-C ,  2-C ) :   0.8808 B(  1-C ,  4-N ) :   1.0259
B(  2-C ,  3-N ) :   2.7567 B(  4-N ,  5-C ) :   1.0641 B(  4-N ,  8-C ) :   1.0365
B(  5-C ,  6-N ) :   1.6932 B(  5-C ,  9-H ) :   0.9058 B(  6-N ,  7-N ) :   0.9832
B(  7-N ,  8-C ) :   1.6843 B(  8-C , 10-H ) :   0.9119

MP2 TOTAL ENERGY:     -447.006543511 Eh
FINAL SINGLE POINT ENERGY      -447.006543510734

DIPOLE MOMENT
-------------
                                X             Y             Z
Electronic contribution:      1.85574      -0.78765      -0.01462
Nuclear contribution   :     -1.42752       0.27941       0.01031
                        -----------------------------------------
Total Dipole Moment    :      0.42822      -0.50824      -0.00431
                        -----------------------------------------
Magnitude (a.u.)       :      0.66461
Magnitude (Debye)      :      1.68929

                             ****ORCA TERMINATED NORMALLY****
TOTAL RUN TIME: 0 days 0 hours 14 minutes 1 seconds 448 msec
