                         Program Version 3.0.3 - RELEASE   -
|  1> ! RI-MP2 RIJK def2-TZVP def2-TZVP/C def2-TZVP/JK TIGHTSCF
|  2> % maxcore 2000
|  3> % mp2 density relaxed end
|  4> *xyz 0 1
|  5>  C       -0.1504297792     1.5217319341     0.0260011129
|  6>  C       -0.0200541302     0.0066945617    -0.0284264107
|  7>  O       -1.2405313411    -0.6150928842    -0.3618441272
|  8>  C        1.1428289857    -0.5003648704    -0.9127025743
|  9>  N        1.9712058649    -0.6304114495     0.3094762919
| 10>  C        0.7864273660    -0.6155783651     1.1693617327
| 11>  C        0.8193482144    -0.0456660883     2.5976201759
| 12>  O        0.1007980723    -1.1869667437     3.1107321516
| 13>  C        0.2197946097    -1.8811942317     1.8517302374
| 14>  H        0.8143670398     1.9865220191     0.2470818488
| 15>  H       -0.5115038069     1.9011117915    -0.9349949847
| 16>  H       -0.8587316474     1.8313089781     0.8046822488
| 17>  H       -1.9463175138    -0.1915536285     0.1390551837
| 18>  H        0.8718433509    -1.4478946631    -1.3944560728
| 19>  H        1.5436401080     0.1880473126    -1.6642171564
| 20>  H        2.5505109285    -1.4611197085     0.3710203867
| 21>  H        1.8352049959     0.0305213386     3.0099345958
| 22>  H        0.2875363061     0.8958175076     2.7828527598
| 23>  H       -0.7423395719    -2.2479258308     1.4795913209
| 24>  H        0.9355786582    -2.7154875495     1.9064988692
| 25> *
| 26>
| 27>                          ****END OF INPUT****

CARTESIAN COORDINATES (ANGSTROEM)
---------------------------------
  C     -0.150430    1.521732    0.026001
  C     -0.020054    0.006695   -0.028426
  O     -1.240531   -0.615093   -0.361844
  C      1.142829   -0.500365   -0.912703
  N      1.971206   -0.630411    0.309476
  C      0.786427   -0.615578    1.169362
  C      0.819348   -0.045666    2.597620
  O      0.100798   -1.186967    3.110732
  C      0.219795   -1.881194    1.851730
  H      0.814367    1.986522    0.247082
  H     -0.511504    1.901112   -0.934995
  H     -0.858732    1.831309    0.804682
  H     -1.946318   -0.191554    0.139055
  H      0.871843   -1.447895   -1.394456
  H      1.543640    0.188047   -1.664217
  H      2.550511   -1.461120    0.371020
  H      1.835205    0.030521    3.009935
  H      0.287536    0.895818    2.782853
  H     -0.742340   -2.247926    1.479591
  H      0.935579   -2.715488    1.906499

 Total Charge           Charge          ....    0
 Multiplicity           Mult            ....    1
 Number of Electrons    NEL             ....   70
 Basis Dimension        Dim             ....  345

ORBITAL ENERGIES
----------------

  NO   OCC          E(Eh)            E(eV)
   0   2.0000     -20.567111      -559.6596
   1   2.0000     -20.547165      -559.1168
   2   2.0000     -15.550933      -423.1624
   3   2.0000     -11.296694      -307.3987
   4   2.0000     -11.273694      -306.7728
   5   2.0000     -11.273631      -306.7711
   6   2.0000     -11.265653      -306.5540
   7   2.0000     -11.254381      -306.2473
   8   2.0000     -11.227954      -305.5282
   9   2.0000      -1.383487       -37.6466
  10   2.0000      -1.373326       -37.3701
  11   2.0000      -1.238407       -33.6988
  12   2.0000      -1.021977       -27.8094
  13   2.0000      -0.980184       -26.6722
  14   2.0000      -0.935888       -25.4668
  15   2.0000      -0.914106       -24.8741
  16   2.0000      -0.821299       -22.3487
  17   2.0000      -0.745922       -20.2976
  18   2.0000      -0.705900       -19.2085
  19   2.0000      -0.682211       -18.5639
  20   2.0000      -0.668103       -18.1800
  21   2.0000      -0.631351       -17.1799
  22   2.0000      -0.601971       -16.3805
  23   2.0000      -0.590132       -16.0583
  24   2.0000      -0.584405       -15.9025
  25   2.0000      -0.571306       -15.5460
  26   2.0000      -0.568151       -15.4602
  27   2.0000      -0.536703       -14.6044
  28   2.0000      -0.517473       -14.0812
  29   2.0000      -0.494031       -13.4433
  30   2.0000      -0.488843       -13.3021
  31   2.0000      -0.450963       -12.2713
  32   2.0000      -0.431923       -11.7532
  33   2.0000      -0.401227       -10.9180
  34   2.0000      -0.379148       -10.3172
  35   0.0000       0.126088         3.4310
  36   0.0000       0.144915         3.9433
  37   0.0000       0.163842         4.4584
  38   0.0000       0.171604         4.6696
  39   0.0000       0.193483         5.2649

MULLIKEN ATOMIC CHARGES
-----------------------
   0 C :   -0.503649
   1 C :    0.297315
   2 O :   -0.460102
   3 C :   -0.169470
   4 N :   -0.332249
   5 C :   -0.028199
   6 C :   -0.009365
   7 O :   -0.331548
   8 C :   -0.044560
   9 H :    0.156605
  10 H :    0.151193
  11 H :    0.131468
  12 H :    0.320889
  13 H :    0.116462
  14 H :    0.109126
  15 H :    0.204222
  16 H :    0.094625
  17 H :    0.098673
  18 H :    0.118384
  19 H :    0.080180
Sum of atomic charges:    0.0000000

LOEWDIN ATOMIC CHARGES
----------------------
   0 C :   -0.278132
   1 C :   -0.356822
   2 O :    0.020406
   3 C :   -0.225912
   4 N :    0.023844
   5 C :   -0.271910
   6 C :   -0.239447
   7 O :    0.110014
   8 C :   -0.240518
   9 H :    0.139058
  10 H :    0.130751
  11 H :    0.124562
  12 H :    0.180305
  13 H :    0.127154
  14 H :    0.121474
  15 H :    0.158001
  16 H :    0.121840
  17 H :    0.117978
  18 H :    0.121062
  19 H :    0.116292

  Mayer bond orders larger than 0.1
B(  0-C ,  1-C ) :   0.9012 B(  0-C ,  9-H ) :   0.9318 B(  0-C , 10-H ) :   0.9366
B(  0-C , 11-H ) :   0.9265 B(  1-C ,  2-O ) :   1.0123 B(  1-C ,  3-C ) :   0.8624
B(  1-C ,  5-C ) :   0.8133 B(  2-O , 12-H ) :   0.8377 B(  3-C ,  4-N ) :   0.9606
B(  3-C , 13-H ) :   0.9127 B(  3-C , 14-H ) :   0.9155 B(  4-N ,  5-C ) :   1.0334
B(  4-N , 15-H ) :   0.8738 B(  5-C ,  6-C ) :   0.9449 B(  5-C ,  8-C ) :   0.9543
B(  6-C ,  7-O ) :   0.9630 B(  6-C , 16-H ) :   0.8998 B(  6-C , 17-H ) :   0.9113
B(  7-O ,  8-C ) :   0.9643 B(  8-C , 18-H ) :   0.9036 B(  8-C , 19-H ) :   0.8978

MP2 TOTAL ENERGY:     -439.522769169 Eh
FINAL SINGLE POINT ENERGY      -439.522769168888

DIPOLE MOMENT
-------------
                                X             Y             Z
Electronic contribution:     -0.62901      -3.09836       2.11338
Nuclear contribution   :      0.64604       3.39245      -2.57580
                        -----------------------------------------
Total Dipole Moment    :      0.01703       0.29409      -0.46242
                        -----------------------------------------
Magnitude (a.u.)       :      0.54828
Magnitude (Debye)      :      1.39362

                             ****ORCA TERMINATED NORMALLY****
TOTAL RUN TIME: 0 days 0 hours 18 minutes 14 seconds 925 msec
