                         Program Version 3.0.3 - RELEASE   -
|  1> ! RI-MP2 RIJK def2-TZVP def2-TZVP/C def2-TZVP/JK TIGHTSCF
|  2> % maxcore 2000
|  3> % mp2 density relaxed end
|  4> *xyz 0 1
|  5>  C        0.0793463583     1.5726583148    -0.0385462361
|  6>  C        0.0331457887     0.0447332005    -0.0077800885
|  7>  O        0.8321969971    -0.4708014802     1.0585391504
|  8>  C       -1.4009081756    -0.4951613000     0.0495255200
|  9>  C       -1.4667444567    -2.0246916691     0.0153069771
| 10>  C       -2.8890391214    -2.6186783684    -0.0776488730
| 11>  C       -2.8051001159    -4.1478412757    -0.1887586920
| 12>  C       -3.7645428533    -2.2230382314     1.1149548474
| 13>  O       -3.5695161120    -2.0917872780    -1.2273085195
| 14>  H        1.1155281987     1.9213205928    -0.0569707581
| 15>  H       -0.4385802188     1.9684905672    -0.9181001778
| 16>  H       -0.4076684723     1.9938370206     0.8503137169
| 17>  H        0.5194621710    -0.3428275908    -0.9127663371
| 18>  H        0.4738298561    -0.1193877835     1.8815865676
| 19>  H       -1.8761313742    -0.1118217927     0.9637469130
| 20>  H       -1.9787847541    -0.0899865041    -0.7887515037
| 21>  H       -0.8977457693    -2.3819284451    -0.8563483641
| 22>  H       -0.9527741297    -2.4348724149     0.8913698447
| 23>  H       -2.3453608886    -4.5885624028     0.7016880684
| 24>  H       -3.8049392420    -4.5741054867    -0.3115488770
| 25>  H       -2.1981230846    -4.4425587554    -1.0534727677
| 26>  H       -3.9231366485    -1.1424890193     1.1423006736
| 27>  H       -4.7444447463    -2.7020985359     1.0355383448
| 28>  H       -3.3017952906    -2.5331223313     2.0567265024
| 29>  H       -3.0953242962    -2.3938954207    -2.0096958619
| 30> *
| 31>
| 32>                          ****END OF INPUT****

CARTESIAN COORDINATES (ANGSTROEM)
---------------------------------
  C      0.079346    1.572658   -0.038546
  C      0.033146    0.044733   -0.007780
  O      0.832197   -0.470801    1.058539
  C     -1.400908   -0.495161    0.049526
  C     -1.466744   -2.024692    0.015307
  C     -2.889039   -2.618678   -0.077649
  C     -2.805100   -4.147841   -0.188759
  C     -3.764543   -2.223038    1.114955
  O     -3.569516   -2.091787   -1.227309
  H      1.115528    1.921321   -0.056971
  H     -0.438580    1.968491   -0.918100
  H     -0.407668    1.993837    0.850314
  H      0.519462   -0.342828   -0.912766
  H      0.473830   -0.119388    1.881587
  H     -1.876131   -0.111822    0.963747
  H     -1.978785   -0.089987   -0.788752
  H     -0.897746   -2.381928   -0.856348
  H     -0.952774   -2.434872    0.891370
  H     -2.345361   -4.588562    0.701688
  H     -3.804939   -4.574105   -0.311549
  H     -2.198123   -4.442559   -1.053473
  H     -3.923137   -1.142489    1.142301
  H     -4.744445   -2.702099    1.035538
  H     -3.301795   -2.533122    2.056727
  H     -3.095324   -2.393895   -2.009696

 Total Charge           Charge          ....    0
 Multiplicity           Mult            ....    1
 Number of Electrons    NEL             ....   74
 Basis Dimension        Dim             ....  375

ORBITAL ENERGIES
----------------

  NO   OCC          E(Eh)            E(eV)
   0   2.0000     -20.550181      -559.1988
   1   2.0000     -20.548299      -559.1476
   2   2.0000     -11.284036      -307.0542
   3   2.0000     -11.277151      -306.8669
   4   2.0000     -11.217448      -305.2423
   5   2.0000     -11.216830      -305.2255
   6   2.0000     -11.216293      -305.2108
   7   2.0000     -11.214938      -305.1740
   8   2.0000     -11.209883      -305.0364
   9   2.0000      -1.356546       -36.9135
  10   2.0000      -1.355453       -36.8838
  11   2.0000      -1.079846       -29.3841
  12   2.0000      -1.036867       -28.2146
  13   2.0000      -0.975635       -26.5484
  14   2.0000      -0.938168       -25.5288
  15   2.0000      -0.875331       -23.8190
  16   2.0000      -0.807718       -21.9791
  17   2.0000      -0.767040       -20.8722
  18   2.0000      -0.668244       -18.1838
  19   2.0000      -0.654690       -17.8150
  20   2.0000      -0.649769       -17.6811
  21   2.0000      -0.627318       -17.0702
  22   2.0000      -0.618817       -16.8389
  23   2.0000      -0.590891       -16.0790
  24   2.0000      -0.575679       -15.6650
  25   2.0000      -0.560398       -15.2492
  26   2.0000      -0.545218       -14.8361
  27   2.0000      -0.532334       -14.4856
  28   2.0000      -0.526761       -14.3339
  29   2.0000      -0.518555       -14.1106
  30   2.0000      -0.508752       -13.8439
  31   2.0000      -0.496053       -13.4983
  32   2.0000      -0.478174       -13.0118
  33   2.0000      -0.470984       -12.8161
  34   2.0000      -0.451044       -12.2735
  35   2.0000      -0.442128       -12.0309
  36   2.0000      -0.418614       -11.3911
  37   0.0000       0.123401         3.3579
  38   0.0000       0.137148         3.7320
  39   0.0000       0.157468         4.2849
  40   0.0000       0.177040         4.8175
  41   0.0000       0.182992         4.9795

MULLIKEN ATOMIC CHARGES
-----------------------
   0 C :   -0.381451
   1 C :    0.121988
   2 O :   -0.475440
   3 C :   -0.305357
   4 C :   -0.268667
   5 C :    0.265947
   6 C :   -0.398671
   7 C :   -0.412227
   8 O :   -0.476605
   9 H :    0.146838
  10 H :    0.126127
  11 H :    0.112445
  12 H :    0.086161
  13 H :    0.308358
  14 H :    0.108629
  15 H :    0.124270
  16 H :    0.104181
  17 H :    0.119237
  18 H :    0.126734
  19 H :    0.143365
  20 H :    0.118997
  21 H :    0.140413
  22 H :    0.135171
  23 H :    0.121480
  24 H :    0.308077
Sum of atomic charges:   -0.0000000

LOEWDIN ATOMIC CHARGES
----------------------
   0 C :   -0.306090
   1 C :   -0.374346
   2 O :   -0.027851
   3 C :   -0.259544
   4 C :   -0.238004
   5 C :   -0.425775
   6 C :   -0.282515
   7 C :   -0.270394
   8 O :   -0.002262
   9 H :    0.125439
  10 H :    0.126008
  11 H :    0.120167
  12 H :    0.142900
  13 H :    0.172536
  14 H :    0.136779
  15 H :    0.146009
  16 H :    0.140662
  17 H :    0.145370
  18 H :    0.127886
  19 H :    0.126939
  20 H :    0.121325
  21 H :    0.126696
  22 H :    0.128494
  23 H :    0.127175
  24 H :    0.172397

  Mayer bond orders larger than 0.1
B(  0-C ,  1-C ) :   0.9404 B(  0-C ,  9-H ) :   0.9448 B(  0-C , 10-H ) :   0.9349
B(  0-C , 11-H ) :   0.9210 B(  1-C ,  2-O ) :   0.8778 B(  1-C ,  3-C ) :   0.9406
B(  1-C , 12-H ) :   0.9260 B(  2-O , 13-H ) :   0.8457 B(  3-C ,  4-C ) :   0.9094
B(  3-C , 14-H ) :   0.9247 B(  3-C , 15-H ) :   0.9208 B(  4-C ,  5-C ) :   0.9228
B(  4-C , 16-H ) :   0.9284 B(  4-C , 17-H ) :   0.9222 B(  5-C ,  6-C ) :   0.9360
B(  5-C ,  7-C ) :   0.8746 B(  5-C ,  8-O ) :   0.8806 B(  6-C , 18-H ) :   0.9326
B(  6-C , 19-H ) :   0.9446 B(  6-C , 20-H ) :   0.9220 B(  7-C , 21-H ) :   0.9434
B(  7-C , 22-H ) :   0.9360 B(  7-C , 23-H ) :   0.9338 B(  8-O , 24-H ) :   0.8458

MP2 TOTAL ENERGY:     -425.944514803 Eh
FINAL SINGLE POINT ENERGY      -425.944514803126

DIPOLE MOMENT
-------------
                                X             Y             Z
Electronic contribution:      1.29262      -0.01368      -1.22521
Nuclear contribution   :     -1.30774       0.04793       1.27385
                        -----------------------------------------
Total Dipole Moment    :     -0.01512       0.03425       0.04864
                        -----------------------------------------
Magnitude (a.u.)       :      0.06138
Magnitude (Debye)      :      0.15602

                             ****ORCA TERMINATED NORMALLY****
TOTAL RUN TIME: 0 days 0 hours 20 minutes 20 seconds 25 msec
