                         Program Version 3.0.3 - RELEASE   -
|  1> ! RI-MP2 RIJK def2-TZVP def2-TZVP/C def2-TZVP/JK TIGHTSCF
|  2> % maxcore 2000
|  3> % mp2 density relaxed end
|  4> *xyz 0 1
|  5>  C       -0.3068728888     1.5658184559    -0.0801223560
|  6>  C       -0.0055525735     0.1114223150     0.0193795274
|  7>  C        0.6717170507    -0.8709917305    -0.8616246571
|  8>  C        1.4614702480    -1.4870390166     0.3060405825
|  9>  C        2.7594637741    -0.8546017133     0.4829878511
| 10>  N        3.7908400482    -0.3507651770     0.6230159202
| 11>  C        0.3434732313    -0.8754101983     1.2129998080
| 12>  C       -0.8878563319    -1.6641133302     0.7499059882
| 13>  N       -0.8022967795    -0.9959573229    -0.5890913961
| 14>  H        0.5669508822     2.1662030958     0.1927298732
| 15>  H       -0.5912010268     1.8153815415    -1.1067039802
| 16>  H       -1.1347060894     1.8480291552     0.5793449246
| 17>  H        0.9779743995    -0.7912640545    -1.8956981067
| 18>  H        1.5738941026    -2.5762900042     0.3381034055
| 19>  H        0.5576974525    -0.6338487146     2.2515244401
| 20>  H       -0.8333580044    -2.7589372426     0.7374206030
| 21>  H       -1.8129019648    -1.3456526187     1.2358511823
| 22> *
| 23>
| 24>                          ****END OF INPUT****

CARTESIAN COORDINATES (ANGSTROEM)
---------------------------------
  C     -0.306873    1.565818   -0.080122
  C     -0.005553    0.111422    0.019380
  C      0.671717   -0.870992   -0.861625
  C      1.461470   -1.487039    0.306041
  C      2.759464   -0.854602    0.482988
  N      3.790840   -0.350765    0.623016
  C      0.343473   -0.875410    1.213000
  C     -0.887856   -1.664113    0.749906
  N     -0.802297   -0.995957   -0.589091
  H      0.566951    2.166203    0.192730
  H     -0.591201    1.815382   -1.106704
  H     -1.134706    1.848029    0.579345
  H      0.977974   -0.791264   -1.895698
  H      1.573894   -2.576290    0.338103
  H      0.557697   -0.633849    2.251524
  H     -0.833358   -2.758937    0.737421
  H     -1.812902   -1.345653    1.235851

 Total Charge           Charge          ....    0
 Multiplicity           Mult            ....    1
 Number of Electrons    NEL             ....   64
 Basis Dimension        Dim             ....  327

ORBITAL ENERGIES
----------------

  NO   OCC          E(Eh)            E(eV)
   0   2.0000     -15.580828      -423.9759
   1   2.0000     -15.572534      -423.7502
   2   2.0000     -11.294704      -307.3445
   3   2.0000     -11.290282      -307.2242
   4   2.0000     -11.286216      -307.1135
   5   2.0000     -11.276292      -306.8435
   6   2.0000     -11.275952      -306.8342
   7   2.0000     -11.273333      -306.7630
   8   2.0000     -11.239340      -305.8380
   9   2.0000      -1.341259       -36.4975
  10   2.0000      -1.220887       -33.2220
  11   2.0000      -1.078220       -29.3399
  12   2.0000      -1.026717       -27.9384
  13   2.0000      -0.998216       -27.1628
  14   2.0000      -0.892413       -24.2838
  15   2.0000      -0.813604       -22.1393
  16   2.0000      -0.746688       -20.3184
  17   2.0000      -0.728233       -19.8162
  18   2.0000      -0.673972       -18.3397
  19   2.0000      -0.649406       -17.6712
  20   2.0000      -0.613570       -16.6961
  21   2.0000      -0.586934       -15.9713
  22   2.0000      -0.580540       -15.7973
  23   2.0000      -0.571890       -15.5619
  24   2.0000      -0.550983       -14.9930
  25   2.0000      -0.535386       -14.5686
  26   2.0000      -0.493951       -13.4411
  27   2.0000      -0.468265       -12.7421
  28   2.0000      -0.461192       -12.5497
  29   2.0000      -0.444357       -12.0916
  30   2.0000      -0.425795       -11.5865
  31   2.0000      -0.386125       -10.5070
  32   0.0000       0.127909         3.4806
  33   0.0000       0.140718         3.8291
  34   0.0000       0.154983         4.2173
  35   0.0000       0.162987         4.4351
  36   0.0000       0.168345         4.5809

MULLIKEN ATOMIC CHARGES
-----------------------
   0 C :   -0.422917
   1 C :    0.069097
   2 C :   -0.067126
   3 C :    0.021056
   4 C :   -0.243394
   5 N :   -0.047628
   6 C :   -0.094599
   7 C :   -0.118297
   8 N :   -0.236772
   9 H :    0.154293
  10 H :    0.150744
  11 H :    0.139472
  12 H :    0.150449
  13 H :    0.142619
  14 H :    0.153455
  15 H :    0.114766
  16 H :    0.134783
Sum of atomic charges:    0.0000000

LOEWDIN ATOMIC CHARGES
----------------------
   0 C :   -0.268578
   1 C :   -0.209751
   2 C :   -0.157880
   3 C :   -0.183079
   4 C :   -0.164433
   5 N :    0.063839
   6 C :   -0.123017
   7 C :   -0.225698
   8 N :    0.147042
   9 H :    0.137186
  10 H :    0.140539
  11 H :    0.133106
  12 H :    0.143870
  13 H :    0.164861
  14 H :    0.140562
  15 H :    0.123461
  16 H :    0.137969

  Mayer bond orders larger than 0.1
B(  0-C ,  1-C ) :   0.7914 B(  0-C ,  9-H ) :   0.9416 B(  0-C , 10-H ) :   0.9456
B(  0-C , 11-H ) :   0.9415 B(  1-C ,  2-C ) :   0.8526 B(  1-C ,  6-C ) :   0.8576
B(  1-C ,  8-N ) :   0.8415 B(  2-C ,  3-C ) :   0.8597 B(  2-C ,  8-N ) :   0.9228
B(  2-C , 12-H ) :   0.9257 B(  3-C ,  4-C ) :   0.9308 B(  3-C ,  6-C ) :   0.8828
B(  3-C , 13-H ) :   0.8961 B(  4-C ,  5-N ) :   2.8766 B(  6-C ,  7-C ) :   0.9452
B(  6-C , 14-H ) :   0.9095 B(  7-C ,  8-N ) :   0.9207 B(  7-C , 15-H ) :   0.9171
B(  7-C , 16-H ) :   0.9330

MP2 TOTAL ENERGY:     -380.145875119 Eh
FINAL SINGLE POINT ENERGY      -380.145875119023

DIPOLE MOMENT
-------------
                                X             Y             Z
Electronic contribution:      5.16050      -2.51419      -0.31589
Nuclear contribution   :     -6.24332       2.24224       0.63708
                        -----------------------------------------
Total Dipole Moment    :     -1.08282      -0.27194       0.32119
                        -----------------------------------------
Magnitude (a.u.)       :      1.16173
Magnitude (Debye)      :      2.95289

                             ****ORCA TERMINATED NORMALLY****
TOTAL RUN TIME: 0 days 0 hours 17 minutes 55 seconds 788 msec
