                         Program Version 3.0.3 - RELEASE   -
|  1> ! RI-MP2 RIJK def2-TZVP def2-TZVP/C def2-TZVP/JK TIGHTSCF
|  2> % maxcore 2000
|  3> % mp2 density relaxed end
|  4> *xyz 0 1
|  5>  C       -0.1291268458     1.6138453367     0.0105213895
|  6>  C       -0.0123169254     0.0814277244    -0.0065876050
|  7>  C       -1.4077068352    -0.5645884732     0.0275751003
|  8>  C        0.6968286459    -0.3687638331    -1.3062238885
|  9>  O        1.8937923338     0.3388206135    -1.5657725073
| 10>  C        3.0879575797    -0.1459606246    -0.9836113126
| 11>  C        2.9463377214    -0.7666442595     0.4121051499
| 12>  O        2.1257311450    -0.0179357680     1.2831701427
| 13>  C        0.7601520491    -0.3958751867     1.2399328713
| 14>  H        0.8595654350     2.0735850394     0.0519921072
| 15>  H       -0.6375587271     1.9802827925    -0.8878603402
| 16>  H       -0.7040781854     1.9459223685     0.8819472367
| 17>  H       -2.0256346740    -0.2037225995    -0.8011156280
| 18>  H       -1.3497551879    -1.6568408228    -0.0473431222
| 19>  H       -1.9306294626    -0.3227864096     0.9591328547
| 20>  H        0.8612987988    -1.4579237110    -1.2996101179
| 21>  H        0.0387592109    -0.1507137982    -2.1557032207
| 22>  H        3.5674573326    -0.8958250023    -1.6370182875
| 23>  H        3.7530622993     0.7227421269    -0.9346881023
| 24>  H        2.5716076981    -1.7991483683     0.3406647555
| 25>  H        3.9466017209    -0.8189983998     0.8596078755
| 26>  H        0.3042990972     0.0365346941     2.1375152878
| 27>  H        0.6809949159    -1.4934552493     1.3234113612
| 28> *
| 29>
| 30>                          ****END OF INPUT****

CARTESIAN COORDINATES (ANGSTROEM)
---------------------------------
  C     -0.129127    1.613845    0.010521
  C     -0.012317    0.081428   -0.006588
  C     -1.407707   -0.564588    0.027575
  C      0.696829   -0.368764   -1.306224
  O      1.893792    0.338821   -1.565773
  C      3.087958   -0.145961   -0.983611
  C      2.946338   -0.766644    0.412105
  O      2.125731   -0.017936    1.283170
  C      0.760152   -0.395875    1.239933
  H      0.859565    2.073585    0.051992
  H     -0.637559    1.980283   -0.887860
  H     -0.704078    1.945922    0.881947
  H     -2.025635   -0.203723   -0.801116
  H     -1.349755   -1.656841   -0.047343
  H     -1.930629   -0.322786    0.959133
  H      0.861299   -1.457924   -1.299610
  H      0.038759   -0.150714   -2.155703
  H      3.567457   -0.895825   -1.637018
  H      3.753062    0.722742   -0.934688
  H      2.571608   -1.799148    0.340665
  H      3.946602   -0.818998    0.859608
  H      0.304299    0.036535    2.137515
  H      0.680995   -1.493455    1.323411

 Total Charge           Charge          ....    0
 Multiplicity           Mult            ....    1
 Number of Electrons    NEL             ....   72
 Basis Dimension        Dim             ....  363

ORBITAL ENERGIES
----------------

  NO   OCC          E(Eh)            E(eV)
   0   2.0000     -20.554512      -559.3167
   1   2.0000     -20.549369      -559.1767
   2   2.0000     -11.277534      -306.8773
   3   2.0000     -11.273919      -306.7789
   4   2.0000     -11.273496      -306.7674
   5   2.0000     -11.272397      -306.7375
   6   2.0000     -11.234010      -305.6929
   7   2.0000     -11.219726      -305.3043
   8   2.0000     -11.204029      -304.8771
   9   2.0000      -1.385571       -37.7033
  10   2.0000      -1.360133       -37.0111
  11   2.0000      -1.103070       -30.0160
  12   2.0000      -1.005461       -27.3600
  13   2.0000      -0.942156       -25.6374
  14   2.0000      -0.931233       -25.3401
  15   2.0000      -0.903403       -24.5829
  16   2.0000      -0.806304       -21.9406
  17   2.0000      -0.753891       -20.5144
  18   2.0000      -0.689547       -18.7635
  19   2.0000      -0.670901       -18.2561
  20   2.0000      -0.653670       -17.7873
  21   2.0000      -0.648123       -17.6363
  22   2.0000      -0.607765       -16.5381
  23   2.0000      -0.595981       -16.2175
  24   2.0000      -0.585937       -15.9442
  25   2.0000      -0.558724       -15.2037
  26   2.0000      -0.545975       -14.8567
  27   2.0000      -0.539895       -14.6913
  28   2.0000      -0.527020       -14.3410
  29   2.0000      -0.498963       -13.5775
  30   2.0000      -0.495646       -13.4872
  31   2.0000      -0.481588       -13.1047
  32   2.0000      -0.457876       -12.4594
  33   2.0000      -0.449198       -12.2233
  34   2.0000      -0.411555       -11.1990
  35   2.0000      -0.403968       -10.9925
  36   0.0000       0.131293         3.5727
  37   0.0000       0.154994         4.2176
  38   0.0000       0.167297         4.5524
  39   0.0000       0.184470         5.0197
  40   0.0000       0.186842         5.0842

MULLIKEN ATOMIC CHARGES
-----------------------
   0 C :   -0.430299
   1 C :    0.090782
   2 C :   -0.431514
   3 C :   -0.074423
   4 O :   -0.316847
   5 C :   -0.037354
   6 C :   -0.107666
   7 O :   -0.314366
   8 C :   -0.091710
   9 H :    0.154040
  10 H :    0.124822
  11 H :    0.123043
  12 H :    0.137396
  13 H :    0.131757
  14 H :    0.137466
  15 H :    0.106143
  16 H :    0.122776
  17 H :    0.091349
  18 H :    0.117345
  19 H :    0.105803
  20 H :    0.131332
  21 H :    0.118438
  22 H :    0.111687
Sum of atomic charges:    0.0000000

LOEWDIN ATOMIC CHARGES
----------------------
   0 C :   -0.269116
   1 C :   -0.342657
   2 C :   -0.270290
   3 C :   -0.282640
   4 O :    0.162496
   5 C :   -0.332150
   6 C :   -0.336506
   7 O :    0.164243
   8 C :   -0.286169
   9 H :    0.132079
  10 H :    0.125875
  11 H :    0.124014
  12 H :    0.128189
  13 H :    0.125257
  14 H :    0.128746
  15 H :    0.126012
  16 H :    0.135764
  17 H :    0.123350
  18 H :    0.130160
  19 H :    0.119180
  20 H :    0.134299
  21 H :    0.135517
  22 H :    0.124349

  Mayer bond orders larger than 0.1
B(  0-C ,  1-C ) :   0.9053 B(  0-C ,  9-H ) :   0.9342 B(  0-C , 10-H ) :   0.9331
B(  0-C , 11-H ) :   0.9318 B(  1-C ,  2-C ) :   0.9063 B(  1-C ,  3-C ) :   0.8997
B(  1-C ,  8-C ) :   0.8842 B(  2-C , 12-H ) :   0.9344 B(  2-C , 13-H ) :   0.9285
B(  2-C , 14-H ) :   0.9350 B(  3-C ,  4-O ) :   0.9067 B(  3-C , 15-H ) :   0.9355
B(  3-C , 16-H ) :   0.9267 B(  4-O ,  5-C ) :   0.9377 B(  5-C ,  6-C ) :   0.9178
B(  5-C , 17-H ) :   0.9264 B(  5-C , 18-H ) :   0.9295 B(  6-C ,  7-O ) :   0.9253
B(  6-C , 19-H ) :   0.9400 B(  6-C , 20-H ) :   0.9194 B(  7-O ,  8-C ) :   0.9208
B(  8-C , 21-H ) :   0.9288 B(  8-C , 22-H ) :   0.9453

MP2 TOTAL ENERGY:     -424.720526659 Eh
FINAL SINGLE POINT ENERGY      -424.720526658511

DIPOLE MOMENT
-------------
                                X             Y             Z
Electronic contribution:      5.17188       0.87598      -0.17631
Nuclear contribution   :     -5.35097      -1.55681       0.17826
                        -----------------------------------------
Total Dipole Moment    :     -0.17910      -0.68083       0.00195
                        -----------------------------------------
Magnitude (a.u.)       :      0.70399
Magnitude (Debye)      :      1.78941

                             ****ORCA TERMINATED NORMALLY****
TOTAL RUN TIME: 0 days 0 hours 22 minutes 16 seconds 909 msec
