                         Program Version 3.0.3 - RELEASE   -
|  1> ! RI-MP2 RIJK def2-TZVP def2-TZVP/C def2-TZVP/JK TIGHTSCF
|  2> % maxcore 2000
|  3> % mp2 density relaxed end
|  4> *xyz 0 1
|  5>  N       -0.0506365257     1.3369039230     0.0234516837
|  6>  C        0.0450636515    -0.0172759206     0.0092238750
|  7>  O        1.1141258873    -0.6187076407    -0.0341965835
|  8>  C       -1.2294533914    -0.7489141261     0.0402461342
|  9>  N       -2.4448170497    -0.1851659002     0.0099767528
| 10>  N       -3.2572144871    -1.2154443293     0.0086115072
| 11>  N       -2.6977453939    -2.4353717242     0.0370431889
| 12>  C       -1.3903795408    -2.1594605222     0.0624559821
| 13>  N       -0.4053413619    -3.1006632508     0.1547291116
| 14>  H        0.7936534900     1.8816454555    -0.0154699842
| 15>  H       -0.9474879304     1.7910950271     0.0466444420
| 16>  H       -4.2573795856    -1.1034100356    -0.0148986669
| 17>  H       -0.6295540473    -4.0197600026    -0.1916980315
| 18>  H        0.5124743051    -2.7389253735    -0.0687874614
| 19> *
| 20>
| 21>                          ****END OF INPUT****

CARTESIAN COORDINATES (ANGSTROEM)
---------------------------------
  N     -0.050637    1.336904    0.023452
  C      0.045064   -0.017276    0.009224
  O      1.114126   -0.618708   -0.034197
  C     -1.229453   -0.748914    0.040246
  N     -2.444817   -0.185166    0.009977
  N     -3.257214   -1.215444    0.008612
  N     -2.697745   -2.435372    0.037043
  C     -1.390380   -2.159461    0.062456
  N     -0.405341   -3.100663    0.154729
  H      0.793653    1.881645   -0.015470
  H     -0.947488    1.791095    0.046644
  H     -4.257380   -1.103410   -0.014899
  H     -0.629554   -4.019760   -0.191698
  H      0.512474   -2.738925   -0.068787

 Total Charge           Charge          ....    0
 Multiplicity           Mult            ....    1
 Number of Electrons    NEL             ....   66
 Basis Dimension        Dim             ....  309

ORBITAL ENERGIES
----------------

  NO   OCC          E(Eh)            E(eV)
   0   2.0000     -20.525778      -558.5348
   1   2.0000     -15.690132      -426.9502
   2   2.0000     -15.644059      -425.6965
   3   2.0000     -15.603155      -424.5834
   4   2.0000     -15.587370      -424.1539
   5   2.0000     -15.565929      -423.5705
   6   2.0000     -11.367103      -309.3146
   7   2.0000     -11.316221      -307.9300
   8   2.0000     -11.271245      -306.7062
   9   2.0000      -1.458322       -39.6830
  10   2.0000      -1.387672       -37.7605
  11   2.0000      -1.245140       -33.8820
  12   2.0000      -1.220806       -33.2198
  13   2.0000      -1.184334       -32.2274
  14   2.0000      -1.092314       -29.7234
  15   2.0000      -0.923147       -25.1201
  16   2.0000      -0.844022       -22.9670
  17   2.0000      -0.803577       -21.8664
  18   2.0000      -0.765247       -20.8234
  19   2.0000      -0.722304       -19.6549
  20   2.0000      -0.689669       -18.7668
  21   2.0000      -0.671990       -18.2858
  22   2.0000      -0.667875       -18.1738
  23   2.0000      -0.649245       -17.6669
  24   2.0000      -0.608629       -16.5616
  25   2.0000      -0.581977       -15.8364
  26   2.0000      -0.521387       -14.1877
  27   2.0000      -0.504291       -13.7225
  28   2.0000      -0.483693       -13.1620
  29   2.0000      -0.445299       -12.1172
  30   2.0000      -0.422853       -11.5064
  31   2.0000      -0.404710       -11.0127
  32   2.0000      -0.333844        -9.0844
  33   0.0000       0.100735         2.7411
  34   0.0000       0.132134         3.5956
  35   0.0000       0.140633         3.8268
  36   0.0000       0.154899         4.2150
  37   0.0000       0.178131         4.8472

MULLIKEN ATOMIC CHARGES
-----------------------
   0 N :   -0.468943
   1 C :    0.275871
   2 O :   -0.407057
   3 C :    0.060004
   4 N :   -0.238472
   5 N :   -0.003905
   6 N :   -0.193371
   7 C :    0.136855
   8 N :   -0.509396
   9 H :    0.260136
  10 H :    0.275597
  11 H :    0.270808
  12 H :    0.254992
  13 H :    0.286879
Sum of atomic charges:   -0.0000000

LOEWDIN ATOMIC CHARGES
----------------------
   0 N :    0.003919
   1 C :   -0.455054
   2 O :    0.062019
   3 C :   -0.248897
   4 N :    0.029928
   5 N :    0.068075
   6 N :    0.033543
   7 C :   -0.349062
   8 N :   -0.041131
   9 H :    0.175257
  10 H :    0.177443
  11 H :    0.189022
  12 H :    0.172735
  13 H :    0.182201

  Mayer bond orders larger than 0.1
B(  0-N ,  1-C ) :   1.2373 B(  0-N ,  9-H ) :   0.8600 B(  0-N , 10-H ) :   0.8580
B(  1-C ,  2-O ) :   1.8561 B(  1-C ,  3-C ) :   0.9219 B(  3-C ,  4-N ) :   1.3953
B(  3-C ,  7-C ) :   1.2772 B(  4-N ,  5-N ) :   1.1853 B(  5-N ,  6-N ) :   1.0991
B(  5-N , 11-H ) :   0.8749 B(  6-N ,  7-C ) :   1.5140 B(  7-C ,  8-N ) :   1.1436
B(  8-N , 12-H ) :   0.8666 B(  8-N , 13-H ) :   0.8411

MP2 TOTAL ENERGY:     -465.490168341 Eh
FINAL SINGLE POINT ENERGY      -465.490168341441

DIPOLE MOMENT
-------------
                                X             Y             Z
Electronic contribution:     -1.80059      -0.22639       0.06433
Nuclear contribution   :      0.99628       0.78484      -0.37081
                        -----------------------------------------
Total Dipole Moment    :     -0.80431       0.55845      -0.30647
                        -----------------------------------------
Magnitude (a.u.)       :      1.02601
Magnitude (Debye)      :      2.60792

                             ****ORCA TERMINATED NORMALLY****
TOTAL RUN TIME: 0 days 0 hours 15 minutes 12 seconds 380 msec
