                         Program Version 3.0.3 - RELEASE   -
|  1> ! RI-MP2 RIJK def2-TZVP def2-TZVP/C def2-TZVP/JK TIGHTSCF
|  2> % maxcore 2000
|  3> % mp2 density relaxed end
|  4> *xyz 0 1
|  5>  C        0.0317206403     1.3077123071    -0.1583690377
|  6>  O       -0.0061176020    -0.0625560965     0.1720303291
|  7>  C       -1.3081368310    -0.6133276982     0.1619307732
|  8>  C       -1.8554641165    -0.8483239028    -1.2787490627
|  9>  O       -2.5845415245    -2.0690977904    -1.2660149949
| 10>  C       -2.1255738125    -2.8412168105    -0.1845987078
| 11>  C       -0.6504595008    -3.0931988943    -0.0437169374
| 12>  C       -1.3287153568    -1.9997774289     0.7681001773
| 13>  H        1.0673872366     1.6383781523    -0.0488960033
| 14>  H       -0.2883355969     1.5006784744    -1.1936675372
| 15>  H       -0.6043690249     1.9048717379     0.5143113203
| 16>  H       -1.9860229088     0.0443452308     0.7292262199
| 17>  H       -2.5296862552    -0.0629020559    -1.6311647845
| 18>  H       -0.9972914325    -0.9025636449    -1.9645001916
| 19>  H       -2.8540628064    -3.5818634812     0.1226766616
| 20>  H       -0.3482826308    -3.9850566853     0.4941953457
| 21>  H        0.0196598269    -2.8037179347    -0.8450223977
| 22>  H       -1.4091763942    -2.0960150889     1.8435398475
| 23> *
| 24>
| 25>                          ****END OF INPUT****

CARTESIAN COORDINATES (ANGSTROEM)
---------------------------------
  C      0.031721    1.307712   -0.158369
  O     -0.006118   -0.062556    0.172030
  C     -1.308137   -0.613328    0.161931
  C     -1.855464   -0.848324   -1.278749
  O     -2.584542   -2.069098   -1.266015
  C     -2.125574   -2.841217   -0.184599
  C     -0.650460   -3.093199   -0.043717
  C     -1.328715   -1.999777    0.768100
  H      1.067387    1.638378   -0.048896
  H     -0.288336    1.500678   -1.193668
  H     -0.604369    1.904872    0.514311
  H     -1.986023    0.044345    0.729226
  H     -2.529686   -0.062902   -1.631165
  H     -0.997291   -0.902564   -1.964500
  H     -2.854063   -3.581863    0.122677
  H     -0.348283   -3.985057    0.494195
  H      0.019660   -2.803718   -0.845022
  H     -1.409176   -2.096015    1.843540

 Total Charge           Charge          ....    0
 Multiplicity           Mult            ....    1
 Number of Electrons    NEL             ....   62
 Basis Dimension        Dim             ....  308

ORBITAL ENERGIES
----------------

  NO   OCC          E(Eh)            E(eV)
   0   2.0000     -20.558893      -559.4359
   1   2.0000     -20.558459      -559.4241
   2   2.0000     -11.287651      -307.1526
   3   2.0000     -11.282276      -307.0063
   4   2.0000     -11.275210      -306.8140
   5   2.0000     -11.275076      -306.8104
   6   2.0000     -11.229651      -305.5743
   7   2.0000     -11.226067      -305.4768
   8   2.0000      -1.393377       -37.9157
   9   2.0000      -1.374411       -37.3996
  10   2.0000      -1.134017       -30.8582
  11   2.0000      -1.016078       -27.6489
  12   2.0000      -0.927943       -25.2506
  13   2.0000      -0.871915       -23.7260
  14   2.0000      -0.795343       -21.6424
  15   2.0000      -0.776068       -21.1179
  16   2.0000      -0.720250       -19.5990
  17   2.0000      -0.674771       -18.3614
  18   2.0000      -0.650477       -17.7004
  19   2.0000      -0.633140       -17.2286
  20   2.0000      -0.620439       -16.8830
  21   2.0000      -0.584782       -15.9127
  22   2.0000      -0.581785       -15.8312
  23   2.0000      -0.552114       -15.0238
  24   2.0000      -0.534617       -14.5477
  25   2.0000      -0.506875       -13.7928
  26   2.0000      -0.485165       -13.2020
  27   2.0000      -0.467683       -12.7263
  28   2.0000      -0.430461       -11.7134
  29   2.0000      -0.407378       -11.0853
  30   2.0000      -0.379504       -10.3268
  31   0.0000       0.139855         3.8056
  32   0.0000       0.159318         4.3353
  33   0.0000       0.167878         4.5682
  34   0.0000       0.187586         5.1045
  35   0.0000       0.189605         5.1594

MULLIKEN ATOMIC CHARGES
-----------------------
   0 C :   -0.227329
   1 O :   -0.289756
   2 C :    0.016020
   3 C :   -0.067098
   4 O :   -0.308173
   5 C :    0.040727
   6 C :   -0.285495
   7 C :   -0.084717
   8 H :    0.143621
   9 H :    0.115130
  10 H :    0.113064
  11 H :    0.076829
  12 H :    0.120726
  13 H :    0.104167
  14 H :    0.126099
  15 H :    0.129550
  16 H :    0.144053
  17 H :    0.132584
Sum of atomic charges:    0.0000000

LOEWDIN ATOMIC CHARGES
----------------------
   0 C :   -0.357737
   1 O :    0.158955
   2 C :   -0.305553
   3 C :   -0.277916
   4 O :    0.179099
   5 C :   -0.275665
   6 C :   -0.200724
   7 C :   -0.188868
   8 H :    0.114646
   9 H :    0.101776
  10 H :    0.102421
  11 H :    0.138889
  12 H :    0.124999
  13 H :    0.126034
  14 H :    0.137430
  15 H :    0.136898
  16 H :    0.140478
  17 H :    0.144836

  Mayer bond orders larger than 0.1
B(  0-C ,  1-O ) :   0.9140 B(  0-C ,  8-H ) :   0.9404 B(  0-C ,  9-H ) :   0.9344
B(  0-C , 10-H ) :   0.9341 B(  1-O ,  2-C ) :   1.0431 B(  2-C ,  3-C ) :   0.9225
B(  2-C ,  7-C ) :   0.9410 B(  2-C , 11-H ) :   0.9331 B(  3-C ,  4-O ) :   0.9345
B(  3-C , 12-H ) :   0.9189 B(  3-C , 13-H ) :   0.9208 B(  4-O ,  5-C ) :   0.9601
B(  5-C ,  6-C ) :   0.8847 B(  5-C ,  7-C ) :   0.8905 B(  5-C , 14-H ) :   0.9382
B(  6-C ,  7-C ) :   0.8659 B(  6-C , 15-H ) :   0.9217 B(  6-C , 16-H ) :   0.9133
B(  7-C , 17-H ) :   0.9224

MP2 TOTAL ENERGY:     -384.272355385 Eh
FINAL SINGLE POINT ENERGY      -384.272355385397

DIPOLE MOMENT
-------------
                                X             Y             Z
Electronic contribution:     -2.01919      -3.21668      -0.16787
Nuclear contribution   :      2.05479       3.65577       0.46280
                        -----------------------------------------
Total Dipole Moment    :      0.03561       0.43909       0.29492
                        -----------------------------------------
Magnitude (a.u.)       :      0.53014
Magnitude (Debye)      :      1.34751

                             ****ORCA TERMINATED NORMALLY****
TOTAL RUN TIME: 0 days 0 hours 11 minutes 53 seconds 106 msec
