                         Program Version 3.0.3 - RELEASE   -
|  1> ! RI-MP2 RIJK def2-TZVP def2-TZVP/C def2-TZVP/JK TIGHTSCF
|  2> % maxcore 2000
|  3> % mp2 density relaxed end
|  4> *xyz 0 1
|  5>  O        0.0150414318     1.4136195838     0.9565477334
|  6>  C        0.0503530174     0.3775661239    -0.0175623757
|  7>  C       -1.2615541282    -0.2506419955    -0.1111811513
|  8>  C       -2.3416861158    -0.7762559135    -0.1979525390
|  9>  C       -3.6356688792    -1.4159440620    -0.3108249648
| 10>  C       -4.2033163835    -1.6601183092    -1.7560005252
| 11>  C       -4.4973496351    -3.1095717702    -1.3393789703
| 12>  O       -5.1372973036    -3.9952302908    -1.8242054984
| 13>  C       -3.7160706818    -2.9592673003    -0.0249914010
| 14>  H        0.8941117260     1.8046519502     0.9905930490
| 15>  H        0.3320560784     0.7713324461    -1.0081136645
| 16>  H        0.7986919374    -0.3890786768     0.2428539697
| 17>  H       -4.3690405371    -0.8793921204     0.2983007415
| 18>  H       -5.0585200270    -1.0580339980    -2.0709142488
| 19>  H       -3.4295709207    -1.6087053257    -2.5279241489
| 20>  H       -2.7394274193    -3.4502379828    -0.0741746358
| 21>  H       -4.2267420798    -3.2778138491     0.8865032100
| 22> *
| 23>
| 24>                          ****END OF INPUT****

CARTESIAN COORDINATES (ANGSTROEM)
---------------------------------
  O      0.015041    1.413620    0.956548
  C      0.050353    0.377566   -0.017562
  C     -1.261554   -0.250642   -0.111181
  C     -2.341686   -0.776256   -0.197953
  C     -3.635669   -1.415944   -0.310825
  C     -4.203316   -1.660118   -1.756001
  C     -4.497350   -3.109572   -1.339379
  O     -5.137297   -3.995230   -1.824205
  C     -3.716071   -2.959267   -0.024991
  H      0.894112    1.804652    0.990593
  H      0.332056    0.771332   -1.008114
  H      0.798692   -0.389079    0.242854
  H     -4.369041   -0.879392    0.298301
  H     -5.058520   -1.058034   -2.070914
  H     -3.429571   -1.608705   -2.527924
  H     -2.739427   -3.450238   -0.074175
  H     -4.226742   -3.277814    0.886503

 Total Charge           Charge          ....    0
 Multiplicity           Mult            ....    1
 Number of Electrons    NEL             ....   66
 Basis Dimension        Dim             ....  327

ORBITAL ENERGIES
----------------

  NO   OCC          E(Eh)            E(eV)
   0   2.0000     -20.572106      -559.7955
   1   2.0000     -20.556928      -559.3825
   2   2.0000     -11.338028      -308.5234
   3   2.0000     -11.313797      -307.8641
   4   2.0000     -11.274845      -306.8041
   5   2.0000     -11.250677      -306.1465
   6   2.0000     -11.250446      -306.1402
   7   2.0000     -11.235635      -305.7372
   8   2.0000     -11.230669      -305.6020
   9   2.0000      -1.400277       -38.1035
  10   2.0000      -1.375967       -37.4420
  11   2.0000      -1.154786       -31.4233
  12   2.0000      -1.054665       -28.6989
  13   2.0000      -0.964074       -26.2338
  14   2.0000      -0.941016       -25.6063
  15   2.0000      -0.882846       -24.0235
  16   2.0000      -0.735604       -20.0168
  17   2.0000      -0.720898       -19.6166
  18   2.0000      -0.697789       -18.9878
  19   2.0000      -0.678365       -18.4593
  20   2.0000      -0.652653       -17.7596
  21   2.0000      -0.649791       -17.6817
  22   2.0000      -0.628238       -17.0952
  23   2.0000      -0.572964       -15.5912
  24   2.0000      -0.572053       -15.5664
  25   2.0000      -0.545829       -14.8528
  26   2.0000      -0.540322       -14.7029
  27   2.0000      -0.516171       -14.0457
  28   2.0000      -0.492873       -13.4118
  29   2.0000      -0.475551       -12.9404
  30   2.0000      -0.410095       -11.1592
  31   2.0000      -0.388360       -10.5678
  32   2.0000      -0.370805       -10.0901
  33   0.0000       0.114206         3.1077
  34   0.0000       0.124845         3.3972
  35   0.0000       0.138938         3.7807
  36   0.0000       0.160389         4.3644
  37   0.0000       0.161310         4.3895

MULLIKEN ATOMIC CHARGES
-----------------------
   0 O :   -0.443842
   1 C :   -0.199261
   2 C :    0.056172
   3 C :   -0.010017
   4 C :   -0.143594
   5 C :   -0.217227
   6 C :    0.132653
   7 O :   -0.246503
   8 C :   -0.217109
   9 H :    0.316409
  10 H :    0.127685
  11 H :    0.127709
  12 H :    0.139402
  13 H :    0.141538
  14 H :    0.147000
  15 H :    0.147328
  16 H :    0.141657
Sum of atomic charges:   -0.0000000

LOEWDIN ATOMIC CHARGES
----------------------
   0 O :   -0.041380
   1 C :   -0.338304
   2 C :   -0.067727
   3 C :   -0.056287
   4 C :   -0.207741
   5 C :   -0.170029
   6 C :   -0.315197
   7 O :    0.165501
   8 C :   -0.170117
   9 H :    0.174641
  10 H :    0.133524
  11 H :    0.133467
  12 H :    0.168979
  13 H :    0.141424
  14 H :    0.153816
  15 H :    0.153889
  16 H :    0.141541

  Mayer bond orders larger than 0.1
B(  0-O ,  1-C ) :   1.1309 B(  0-O ,  9-H ) :   0.8468 B(  1-C ,  2-C ) :   0.8940
B(  1-C , 10-H ) :   0.9538 B(  1-C , 11-H ) :   0.9536 B(  2-C ,  3-C ) :   2.7162
B(  2-C ,  4-C ) :  -0.1258 B(  3-C ,  4-C ) :   1.0963 B(  4-C ,  5-C ) :   0.9151
B(  4-C ,  8-C ) :   0.9140 B(  4-C , 12-H ) :   0.9113 B(  5-C ,  6-C ) :   0.8893
B(  5-C ,  8-C ) :  -0.1009 B(  5-C , 13-H ) :   0.9016 B(  5-C , 14-H ) :   0.9022
B(  6-C ,  7-O ) :   2.0319 B(  6-C ,  8-C ) :   0.8893 B(  8-C , 15-H ) :   0.9020
B(  8-C , 16-H ) :   0.9017

MP2 TOTAL ENERGY:     -421.073537872 Eh
FINAL SINGLE POINT ENERGY      -421.073537872297

DIPOLE MOMENT
-------------
                                X             Y             Z
Electronic contribution:     -2.51785      -1.91744      -0.63410
Nuclear contribution   :      3.58252       2.51678       0.70791
                        -----------------------------------------
Total Dipole Moment    :      1.06467       0.59934       0.07381
                        -----------------------------------------
Magnitude (a.u.)       :      1.22400
Magnitude (Debye)      :      3.11116

                             ****ORCA TERMINATED NORMALLY****
TOTAL RUN TIME: 0 days 0 hours 13 minutes 53 seconds 72 msec
