                         Program Version 3.0.3 - RELEASE   -
|  1> ! RI-MP2 RIJK def2-TZVP def2-TZVP/C def2-TZVP/JK TIGHTSCF
|  2> % maxcore 2000
|  3> % mp2 density relaxed end
|  4> *xyz 0 1
|  5>  C       -0.2370925269     1.4366406538     0.0438325514
|  6>  N        0.0272246367     0.0027172269     0.0482156926
|  7>  C        1.1937911937    -0.4764751112    -0.8148610085
|  8>  C        2.1774763185    -0.0457214582     0.3229236689
|  9>  C        0.9399380194    -0.5120327557     1.1511149900
| 10>  C        0.9090641617    -2.0158341376     0.7913821269
| 11>  C        1.0832104709    -1.9754441284    -0.5424822816
| 12>  C        0.7228527017    -3.0803232733     1.6870426291
| 13>  C        0.5659651233    -3.9653558895     2.4912629129
| 14>  H        0.6344104030     2.1009308259     0.1668290658
| 15>  H       -0.7248372734     1.6959836095    -0.9018832013
| 16>  H       -0.9444947565     1.6601038078     0.8495842938
| 17>  H        1.2586098044    -0.1204713457    -1.8425515510
| 18>  H        3.1133766758    -0.5980667016     0.4343978817
| 19>  H        2.3610257337     1.0295107875     0.3676936086
| 20>  H        0.7392851994    -0.2154337625     2.1798074599
| 21>  H        1.1148714842    -2.7804455587    -1.2608326292
| 22>  H        0.4237642004    -4.7542993989     3.1870723902
| 23> *
| 24>
| 25>                          ****END OF INPUT****

CARTESIAN COORDINATES (ANGSTROEM)
---------------------------------
  C     -0.237093    1.436641    0.043833
  N      0.027225    0.002717    0.048216
  C      1.193791   -0.476475   -0.814861
  C      2.177476   -0.045721    0.322924
  C      0.939938   -0.512033    1.151115
  C      0.909064   -2.015834    0.791382
  C      1.083210   -1.975444   -0.542482
  C      0.722853   -3.080323    1.687043
  C      0.565965   -3.965356    2.491263
  H      0.634410    2.100931    0.166829
  H     -0.724837    1.695984   -0.901883
  H     -0.944495    1.660104    0.849584
  H      1.258610   -0.120471   -1.842552
  H      3.113377   -0.598067    0.434398
  H      2.361026    1.029511    0.367694
  H      0.739285   -0.215434    2.179807
  H      1.114871   -2.780446   -1.260833
  H      0.423764   -4.754299    3.187072

 Total Charge           Charge          ....    0
 Multiplicity           Mult            ....    1
 Number of Electrons    NEL             ....   64
 Basis Dimension        Dim             ....  333

ORBITAL ENERGIES
----------------

  NO   OCC          E(Eh)            E(eV)
   0   2.0000     -15.552800      -423.2132
   1   2.0000     -11.275368      -306.8184
   2   2.0000     -11.274750      -306.8016
   3   2.0000     -11.250860      -306.1515
   4   2.0000     -11.242868      -305.9340
   5   2.0000     -11.241251      -305.8900
   6   2.0000     -11.237672      -305.7926
   7   2.0000     -11.235840      -305.7427
   8   2.0000     -11.227003      -305.5023
   9   2.0000      -1.275402       -34.7054
  10   2.0000      -1.097939       -29.8764
  11   2.0000      -1.032953       -28.1081
  12   2.0000      -0.968938       -26.3661
  13   2.0000      -0.936566       -25.4853
  14   2.0000      -0.895991       -24.3812
  15   2.0000      -0.798860       -21.7381
  16   2.0000      -0.751732       -20.4557
  17   2.0000      -0.719052       -19.5664
  18   2.0000      -0.697385       -18.9768
  19   2.0000      -0.651107       -17.7175
  20   2.0000      -0.598960       -16.2985
  21   2.0000      -0.590449       -16.0669
  22   2.0000      -0.582749       -15.8574
  23   2.0000      -0.546320       -14.8661
  24   2.0000      -0.517583       -14.0841
  25   2.0000      -0.507031       -13.7970
  26   2.0000      -0.489809       -13.3284
  27   2.0000      -0.449126       -12.2213
  28   2.0000      -0.444927       -12.1071
  29   2.0000      -0.389637       -10.6026
  30   2.0000      -0.358216        -9.7475
  31   2.0000      -0.319158        -8.6847
  32   0.0000       0.102176         2.7804
  33   0.0000       0.142989         3.8909
  34   0.0000       0.163168         4.4400
  35   0.0000       0.168662         4.5895
  36   0.0000       0.172691         4.6992

MULLIKEN ATOMIC CHARGES
-----------------------
   0 C :   -0.335080
   1 N :   -0.185524
   2 C :    0.002292
   3 C :   -0.237866
   4 C :   -0.018131
   5 C :   -0.162625
   6 C :   -0.202414
   7 C :    0.037884
   8 C :   -0.134599
   9 H :    0.096526
  10 H :    0.140275
  11 H :    0.141542
  12 H :    0.135530
  13 H :    0.122266
  14 H :    0.124538
  15 H :    0.139705
  16 H :    0.143260
  17 H :    0.192420
Sum of atomic charges:   -0.0000000

LOEWDIN ATOMIC CHARGES
----------------------
   0 C :   -0.343232
   1 N :    0.105801
   2 C :   -0.197657
   3 C :   -0.191044
   4 C :   -0.159763
   5 C :   -0.126486
   6 C :   -0.068638
   7 C :   -0.076089
   8 C :   -0.075919
   9 H :    0.099292
  10 H :    0.119941
  11 H :    0.120555
  12 H :    0.132826
  13 H :    0.129331
  14 H :    0.127895
  15 H :    0.136807
  16 H :    0.138955
  17 H :    0.127424

  Mayer bond orders larger than 0.1
B(  0-C ,  1-N ) :   0.9043 B(  0-C ,  9-H ) :   0.9161 B(  0-C , 10-H ) :   0.9380
B(  0-C , 11-H ) :   0.9374 B(  1-N ,  2-C ) :   0.8565 B(  1-N ,  4-C ) :   0.8820
B(  2-C ,  3-C ) :   0.9330 B(  2-C ,  6-C ) :   0.9196 B(  2-C , 12-H ) :   0.9089
B(  3-C ,  4-C ) :   0.9364 B(  3-C , 13-H ) :   0.9130 B(  3-C , 14-H ) :   0.9233
B(  4-C ,  5-C ) :   0.9021 B(  4-C , 15-H ) :   0.8979 B(  5-C ,  6-C ) :   1.6788
B(  5-C ,  7-C ) :   1.2317 B(  5-C ,  8-C ) :  -0.1533 B(  6-C , 16-H ) :   0.9230
B(  7-C ,  8-C ) :   2.5829 B(  8-C , 17-H ) :   0.8720

MP2 TOTAL ENERGY:     -364.047360268 Eh
FINAL SINGLE POINT ENERGY      -364.047360268158

DIPOLE MOMENT
-------------
                                X             Y             Z
Electronic contribution:     -0.19373      -6.89829       1.58414
Nuclear contribution   :      0.62233       7.33567      -1.66025
                        -----------------------------------------
Total Dipole Moment    :      0.42860       0.43738      -0.07612
                        -----------------------------------------
Magnitude (a.u.)       :      0.61708
Magnitude (Debye)      :      1.56850

                             ****ORCA TERMINATED NORMALLY****
TOTAL RUN TIME: 0 days 0 hours 19 minutes 12 seconds 299 msec
