                         Program Version 3.0.3 - RELEASE   -
|  1> ! RI-MP2 RIJK def2-TZVP def2-TZVP/C def2-TZVP/JK TIGHTSCF
|  2> % maxcore 2000
|  3> % mp2 density relaxed end
|  4> *xyz 0 1
|  5>  C        0.2337970648     1.4424582765    -0.1604434632
|  6>  N        0.3468734762    -0.0087513270    -0.1643953337
|  7>  C        0.5110866261    -0.6172071183     0.9128424608
|  8>  O        0.6017895272    -0.1621267370     2.2257678514
|  9>  C        0.8461540763    -1.5156332999     2.7509620808
| 10>  C       -0.1542442386    -1.9093522852     3.8134361757
| 11>  C        0.6801456939    -2.0497533276     1.3234477219
| 12>  C        0.0879608272    -3.2752209601     0.7867677374
| 13>  O        1.4938577771    -3.0063589461     0.6917798020
| 14>  H        0.9771847884     1.8581197582    -0.8489369273
| 15>  H       -0.7517150596     1.7250796387    -0.5472233757
| 16>  H        0.3685315750     1.8999582233     0.8264698614
| 17>  H        1.8783308149    -1.5872796108     3.1087335574
| 18>  H       -1.1763003613    -1.8481575475     3.4290233667
| 19>  H        0.0356396972    -2.9351150403     4.1464632562
| 20>  H       -0.0691003582    -1.2504311612     4.6823541643
| 21>  H       -0.1888593222    -4.0804376618     1.4654439897
| 22>  H       -0.4591590544    -3.2281631637    -0.1524517157
| 23> *
| 24>
| 25>                          ****END OF INPUT****

CARTESIAN COORDINATES (ANGSTROEM)
---------------------------------
  C      0.233797    1.442458   -0.160443
  N      0.346873   -0.008751   -0.164395
  C      0.511087   -0.617207    0.912842
  O      0.601790   -0.162127    2.225768
  C      0.846154   -1.515633    2.750962
  C     -0.154244   -1.909352    3.813436
  C      0.680146   -2.049753    1.323448
  C      0.087961   -3.275221    0.786768
  O      1.493858   -3.006359    0.691780
  H      0.977185    1.858120   -0.848937
  H     -0.751715    1.725080   -0.547223
  H      0.368532    1.899958    0.826470
  H      1.878331   -1.587280    3.108734
  H     -1.176300   -1.848158    3.429023
  H      0.035640   -2.935115    4.146463
  H     -0.069100   -1.250431    4.682354
  H     -0.188859   -4.080438    1.465444
  H     -0.459159   -3.228163   -0.152452

 Total Charge           Charge          ....    0
 Multiplicity           Mult            ....    1
 Number of Electrons    NEL             ....   68
 Basis Dimension        Dim             ....  333

ORBITAL ENERGIES
----------------

  NO   OCC          E(Eh)            E(eV)
   0   2.0000     -20.592505      -560.3506
   1   2.0000     -20.591189      -560.3147
   2   2.0000     -15.548473      -423.0955
   3   2.0000     -11.335136      -308.4447
   4   2.0000     -11.314730      -307.8895
   5   2.0000     -11.311245      -307.7946
   6   2.0000     -11.303925      -307.5954
   7   2.0000     -11.244545      -305.9796
   8   2.0000     -11.239689      -305.8475
   9   2.0000      -1.448678       -39.4205
  10   2.0000      -1.420146       -38.6441
  11   2.0000      -1.220546       -33.2127
  12   2.0000      -1.050552       -28.5870
  13   2.0000      -0.988156       -26.8891
  14   2.0000      -0.933910       -25.4130
  15   2.0000      -0.918939       -25.0056
  16   2.0000      -0.833352       -22.6767
  17   2.0000      -0.741201       -20.1691
  18   2.0000      -0.718129       -19.5413
  19   2.0000      -0.693089       -18.8599
  20   2.0000      -0.657774       -17.8989
  21   2.0000      -0.638204       -17.3664
  22   2.0000      -0.608426       -16.5561
  23   2.0000      -0.593881       -16.1603
  24   2.0000      -0.581187       -15.8149
  25   2.0000      -0.574271       -15.6267
  26   2.0000      -0.549405       -14.9501
  27   2.0000      -0.522565       -14.2197
  28   2.0000      -0.521004       -14.1773
  29   2.0000      -0.504458       -13.7270
  30   2.0000      -0.469784       -12.7835
  31   2.0000      -0.459547       -12.5049
  32   2.0000      -0.412641       -11.2285
  33   2.0000      -0.384497       -10.4627
  34   0.0000       0.129759         3.5309
  35   0.0000       0.156268         4.2523
  36   0.0000       0.159297         4.3347
  37   0.0000       0.166733         4.5370
  38   0.0000       0.174972         4.7612

MULLIKEN ATOMIC CHARGES
-----------------------
   0 C :   -0.273154
   1 N :   -0.229928
   2 C :    0.143371
   3 O :   -0.292711
   4 C :    0.152435
   5 C :   -0.416084
   6 C :    0.077921
   7 C :   -0.063820
   8 O :   -0.312568
   9 H :    0.140671
  10 H :    0.137271
  11 H :    0.131154
  12 H :    0.114585
  13 H :    0.137556
  14 H :    0.137972
  15 H :    0.149071
  16 H :    0.125594
  17 H :    0.140665
Sum of atomic charges:    0.0000000

LOEWDIN ATOMIC CHARGES
----------------------
   0 C :   -0.322754
   1 N :    0.090242
   2 C :   -0.331429
   3 O :    0.225225
   4 C :   -0.228651
   5 C :   -0.288455
   6 C :   -0.274965
   7 C :   -0.215279
   8 O :    0.196908
   9 H :    0.120386
  10 H :    0.120132
  11 H :    0.111117
  12 H :    0.145958
  13 H :    0.130752
  14 H :    0.133062
  15 H :    0.132629
  16 H :    0.124450
  17 H :    0.130673

  Mayer bond orders larger than 0.1
B(  0-C ,  1-N ) :   0.8490 B(  0-C ,  9-H ) :   0.9350 B(  0-C , 10-H ) :   0.9330
B(  0-C , 11-H ) :   0.9310 B(  1-N ,  2-C ) :   2.0177 B(  2-C ,  3-O ) :   1.0510
B(  2-C ,  6-C ) :   0.8974 B(  3-O ,  4-C ) :   0.8889 B(  4-C ,  5-C ) :   0.9189
B(  4-C ,  6-C ) :   0.9165 B(  4-C , 12-H ) :   0.9144 B(  5-C , 13-H ) :   0.9307
B(  5-C , 14-H ) :   0.9280 B(  5-C , 15-H ) :   0.9314 B(  6-C ,  7-C ) :   0.9510
B(  6-C ,  8-O ) :   0.9234 B(  7-C ,  8-O ) :   0.8959 B(  7-C , 16-H ) :   0.9155
B(  7-C , 17-H ) :   0.9077

MP2 TOTAL ENERGY:     -438.324480784 Eh
FINAL SINGLE POINT ENERGY      -438.324480783508

DIPOLE MOMENT
-------------
                                X             Y             Z
Electronic contribution:      3.18350      -1.78250      -2.70944
Nuclear contribution   :     -3.75777       1.46176       3.56332
                        -----------------------------------------
Total Dipole Moment    :     -0.57427      -0.32074       0.85387
                        -----------------------------------------
Magnitude (a.u.)       :      1.07785
Magnitude (Debye)      :      2.73968

                             ****ORCA TERMINATED NORMALLY****
TOTAL RUN TIME: 0 days 0 hours 16 minutes 43 seconds 233 msec
