                         Program Version 3.0.3 - RELEASE   -
|  1> ! RI-MP2 RIJK def2-TZVP def2-TZVP/C def2-TZVP/JK TIGHTSCF
|  2> % maxcore 2000
|  3> % mp2 density relaxed end
|  4> *xyz 0 1
|  5>  O        0.1944863763     1.4437057897     0.0136314369
|  6>  C        0.0713659384     0.0324087462    -0.0191258692
|  7>  C        0.5138028682    -0.6213425440     1.3292862157
|  8>  N       -0.6816650409    -0.6126653097     2.2065787940
|  9>  C       -1.6653229989    -0.5258723926     1.4096453030
| 10>  O       -2.9628722734    -0.3584535587     1.7110745107
| 11>  C       -3.6627604219    -0.0140095788     0.4853093422
| 12>  C       -2.5807659660     0.4039624747    -0.5395994264
| 13>  C       -1.3974531106    -0.4456495510    -0.0723126576
| 14>  H       -0.0957323331     1.7449455941     0.8826760120
| 15>  H        0.6650585254    -0.2991887128    -0.8741170843
| 16>  H        0.8735769179    -1.6480928626     1.1777951487
| 17>  H        1.3295441937    -0.0538749265     1.7885531900
| 18>  H       -4.2218621468    -0.8955144518     0.1506490913
| 19>  H       -4.3721895403     0.7794320512     0.7291498324
| 20>  H       -2.9015961571     0.2169151965    -1.5660934481
| 21>  H       -2.3365792208     1.4654131408    -0.4413755681
| 22>  H       -1.4370601999    -1.4531678247    -0.5081064431
| 23> *
| 24>
| 25>                          ****END OF INPUT****

CARTESIAN COORDINATES (ANGSTROEM)
---------------------------------
  O      0.194486    1.443706    0.013631
  C      0.071366    0.032409   -0.019126
  C      0.513803   -0.621343    1.329286
  N     -0.681665   -0.612665    2.206579
  C     -1.665323   -0.525872    1.409645
  O     -2.962872   -0.358454    1.711075
  C     -3.662760   -0.014010    0.485309
  C     -2.580766    0.403962   -0.539599
  C     -1.397453   -0.445650   -0.072313
  H     -0.095732    1.744946    0.882676
  H      0.665059   -0.299189   -0.874117
  H      0.873577   -1.648093    1.177795
  H      1.329544   -0.053875    1.788553
  H     -4.221862   -0.895514    0.150649
  H     -4.372190    0.779432    0.729150
  H     -2.901596    0.216915   -1.566093
  H     -2.336579    1.465413   -0.441376
  H     -1.437060   -1.453168   -0.508106

 Total Charge           Charge          ....    0
 Multiplicity           Mult            ....    1
 Number of Electrons    NEL             ....   68
 Basis Dimension        Dim             ....  333

ORBITAL ENERGIES
----------------

  NO   OCC          E(Eh)            E(eV)
   0   2.0000     -20.598384      -560.5105
   1   2.0000     -20.564998      -559.6020
   2   2.0000     -15.540414      -422.8762
   3   2.0000     -11.328347      -308.2600
   4   2.0000     -11.303107      -307.5732
   5   2.0000     -11.295447      -307.3647
   6   2.0000     -11.256488      -306.3046
   7   2.0000     -11.250170      -306.1327
   8   2.0000     -11.249086      -306.1032
   9   2.0000      -1.436366       -39.0855
  10   2.0000      -1.374454       -37.4008
  11   2.0000      -1.238037       -33.6887
  12   2.0000      -1.093327       -29.7510
  13   2.0000      -0.990120       -26.9425
  14   2.0000      -0.977256       -26.5925
  15   2.0000      -0.854667       -23.2567
  16   2.0000      -0.824433       -22.4340
  17   2.0000      -0.753237       -20.4966
  18   2.0000      -0.720367       -19.6022
  19   2.0000      -0.696070       -18.9410
  20   2.0000      -0.657063       -17.8796
  21   2.0000      -0.632312       -17.2061
  22   2.0000      -0.623986       -16.9795
  23   2.0000      -0.609043       -16.5729
  24   2.0000      -0.581073       -15.8118
  25   2.0000      -0.565672       -15.3927
  26   2.0000      -0.553592       -15.0640
  27   2.0000      -0.535694       -14.5770
  28   2.0000      -0.511808       -13.9270
  29   2.0000      -0.493690       -13.4340
  30   2.0000      -0.474781       -12.9194
  31   2.0000      -0.450405       -12.2562
  32   2.0000      -0.410345       -11.1660
  33   2.0000      -0.380673       -10.3586
  34   0.0000       0.123664         3.3651
  35   0.0000       0.145889         3.9698
  36   0.0000       0.152605         4.1526
  37   0.0000       0.167260         4.5514
  38   0.0000       0.182075         4.9545

MULLIKEN ATOMIC CHARGES
-----------------------
   0 O :   -0.463702
   1 C :    0.026106
   2 C :   -0.113813
   3 N :   -0.194524
   4 C :    0.051987
   5 O :   -0.240444
   6 C :   -0.035460
   7 C :   -0.263797
   8 C :   -0.092865
   9 H :    0.326300
  10 H :    0.117903
  11 H :    0.112457
  12 H :    0.136371
  13 H :    0.114318
  14 H :    0.129335
  15 H :    0.136428
  16 H :    0.134045
  17 H :    0.119355
Sum of atomic charges:   -0.0000000

LOEWDIN ATOMIC CHARGES
----------------------
   0 O :   -0.010245
   1 C :   -0.307769
   2 C :   -0.255740
   3 N :    0.090476
   4 C :   -0.384075
   5 O :    0.259700
   6 C :   -0.245849
   7 C :   -0.229874
   8 C :   -0.208587
   9 H :    0.181031
  10 H :    0.139929
  11 H :    0.132121
  12 H :    0.131703
  13 H :    0.125544
  14 H :    0.128129
  15 H :    0.139563
  16 H :    0.144619
  17 H :    0.169323

  Mayer bond orders larger than 0.1
B(  0-O ,  1-C ) :   0.9280 B(  0-O ,  9-H ) :   0.8355 B(  1-C ,  2-C ) :   0.9390
B(  1-C ,  8-C ) :   0.9076 B(  1-C , 10-H ) :   0.9227 B(  2-C ,  3-N ) :   0.8840
B(  2-C , 11-H ) :   0.9109 B(  2-C , 12-H ) :   0.9309 B(  3-N ,  4-C ) :   1.8863
B(  4-C ,  5-O ) :   1.1323 B(  4-C ,  8-C ) :   0.9314 B(  5-O ,  6-C ) :   0.8629
B(  6-C ,  7-C ) :   0.9431 B(  6-C , 13-H ) :   0.9284 B(  6-C , 14-H ) :   0.9267
B(  7-C ,  8-C ) :   0.9084 B(  7-C , 15-H ) :   0.9259 B(  7-C , 16-H ) :   0.9142
B(  8-C , 17-H ) :   0.8867

MP2 TOTAL ENERGY:     -438.387020102 Eh
FINAL SINGLE POINT ENERGY      -438.387020102003

DIPOLE MOMENT
-------------
                                X             Y             Z
Electronic contribution:     -0.11824      -0.35962       3.66103
Nuclear contribution   :     -0.35322       0.23995      -4.77430
                        -----------------------------------------
Total Dipole Moment    :     -0.47146      -0.11967      -1.11327
                        -----------------------------------------
Magnitude (a.u.)       :      1.21489
Magnitude (Debye)      :      3.08801

                             ****ORCA TERMINATED NORMALLY****
TOTAL RUN TIME: 0 days 0 hours 17 minutes 30 seconds 100 msec
