                         Program Version 3.0.3 - RELEASE   -
|  1> ! RI-MP2 RIJK def2-TZVP def2-TZVP/C def2-TZVP/JK TIGHTSCF
|  2> % maxcore 2000
|  3> % mp2 density relaxed end
|  4> *xyz 0 1
|  5>  C        0.1083163299     1.5642796110    -0.0734172910
|  6>  C       -0.0447297989     0.0537561341     0.0799135199
|  7>  O        0.5065604156    -0.6249487517    -1.0683480287
|  8>  C        1.4750293718    -1.6398132420    -0.7202987556
|  9>  C        1.6028711944    -1.5121120581     0.7632205595
| 10>  C        0.7414330012    -0.5656491158     1.1890571170
| 11>  O        0.7849711210    -0.3959037159     2.5061715914
| 12>  N        1.7493978860    -1.2960542632     3.0096177090
| 13>  C        2.2181156941    -1.9446864626     1.9634087696
| 14>  H        1.1645554752     1.8382671649    -0.1389317476
| 15>  H       -0.3977740209     1.8953595935    -0.9837028225
| 16>  H       -0.3389363796     2.0794841814     0.7824093357
| 17>  H       -1.1134332713    -0.1985923505     0.1610087313
| 18>  H        1.1021650951    -2.6224243765    -1.0413024191
| 19>  H        2.4051792571    -1.4395311372    -1.2672684900
| 20>  H        2.9795947892    -2.6936163515     2.1303776511
| 21> *
| 22>
| 23>                          ****END OF INPUT****

CARTESIAN COORDINATES (ANGSTROEM)
---------------------------------
  C      0.108316    1.564280   -0.073417
  C     -0.044730    0.053756    0.079914
  O      0.506560   -0.624949   -1.068348
  C      1.475029   -1.639813   -0.720299
  C      1.602871   -1.512112    0.763221
  C      0.741433   -0.565649    1.189057
  O      0.784971   -0.395904    2.506172
  N      1.749398   -1.296054    3.009618
  C      2.218116   -1.944686    1.963409
  H      1.164555    1.838267   -0.138932
  H     -0.397774    1.895360   -0.983703
  H     -0.338936    2.079484    0.782409
  H     -1.113433   -0.198592    0.161009
  H      1.102165   -2.622424   -1.041302
  H      2.405179   -1.439531   -1.267268
  H      2.979595   -2.693616    2.130378

 Total Charge           Charge          ....    0
 Multiplicity           Mult            ....    1
 Number of Electrons    NEL             ....   66
 Basis Dimension        Dim             ....  321

ORBITAL ENERGIES
----------------

  NO   OCC          E(Eh)            E(eV)
   0   2.0000     -20.652324      -561.9783
   1   2.0000     -20.570050      -559.7395
   2   2.0000     -15.629110      -425.2897
   3   2.0000     -11.314351      -307.8791
   4   2.0000     -11.310424      -307.7723
   5   2.0000     -11.304604      -307.6139
   6   2.0000     -11.294639      -307.3428
   7   2.0000     -11.237429      -305.7860
   8   2.0000     -11.231424      -305.6226
   9   2.0000      -1.496913       -40.7331
  10   2.0000      -1.388222       -37.7755
  11   2.0000      -1.173788       -31.9404
  12   2.0000      -1.099558       -29.9205
  13   2.0000      -1.051371       -28.6093
  14   2.0000      -0.938911       -25.5491
  15   2.0000      -0.873891       -23.7798
  16   2.0000      -0.823273       -22.4024
  17   2.0000      -0.789350       -21.4793
  18   2.0000      -0.726198       -19.7609
  19   2.0000      -0.686131       -18.6706
  20   2.0000      -0.649369       -17.6702
  21   2.0000      -0.640701       -17.4343
  22   2.0000      -0.611100       -16.6289
  23   2.0000      -0.592496       -16.1226
  24   2.0000      -0.569911       -15.5081
  25   2.0000      -0.558825       -15.2064
  26   2.0000      -0.555579       -15.1181
  27   2.0000      -0.532458       -14.4889
  28   2.0000      -0.512122       -13.9355
  29   2.0000      -0.470319       -12.7980
  30   2.0000      -0.448768       -12.2116
  31   2.0000      -0.432103       -11.7581
  32   2.0000      -0.352781        -9.5997
  33   0.0000       0.113572         3.0905
  34   0.0000       0.139883         3.8064
  35   0.0000       0.156391         4.2556
  36   0.0000       0.170651         4.6437
  37   0.0000       0.178114         4.8467

MULLIKEN ATOMIC CHARGES
-----------------------
   0 C :   -0.380749
   1 C :    0.102571
   2 O :   -0.315755
   3 C :    0.000645
   4 C :   -0.088603
   5 C :    0.098549
   6 O :   -0.117917
   7 N :   -0.101134
   8 C :   -0.110871
   9 H :    0.130707
  10 H :    0.146401
  11 H :    0.133915
  12 H :    0.108573
  13 H :    0.118915
  14 H :    0.120906
  15 H :    0.153847
Sum of atomic charges:    0.0000000

LOEWDIN ATOMIC CHARGES
----------------------
   0 C :   -0.280724
   1 C :   -0.283458
   2 O :    0.164888
   3 C :   -0.238984
   4 C :   -0.167560
   5 C :   -0.244506
   6 O :    0.299551
   7 N :    0.046760
   8 C :   -0.241256
   9 H :    0.128451
  10 H :    0.129977
  11 H :    0.130937
  12 H :    0.149145
  13 H :    0.130797
  14 H :    0.131378
  15 H :    0.144605

  Mayer bond orders larger than 0.1
B(  0-C ,  1-C ) :   0.9115 B(  0-C ,  9-H ) :   0.9314 B(  0-C , 10-H ) :   0.9353
B(  0-C , 11-H ) :   0.9252 B(  1-C ,  2-O ) :   0.9420 B(  1-C ,  5-C ) :   0.9607
B(  1-C , 12-H ) :   0.9061 B(  2-O ,  3-C ) :   0.9447 B(  3-C ,  4-C ) :   0.9538
B(  3-C , 13-H ) :   0.9126 B(  3-C , 14-H ) :   0.9099 B(  4-C ,  5-C ) :   1.4380
B(  4-C ,  8-C ) :   1.1749 B(  5-C ,  6-O ) :   1.1548 B(  5-C ,  7-N ) :   0.1008
B(  6-O ,  7-N ) :   0.8704 B(  7-N ,  8-C ) :   1.5943 B(  8-C , 15-H ) :   0.9254

MP2 TOTAL ENERGY:     -437.138786174 Eh
FINAL SINGLE POINT ENERGY      -437.138786174473

DIPOLE MOMENT
-------------
                                X             Y             Z
Electronic contribution:      1.20796      -3.55397       5.04848
Nuclear contribution   :     -1.08696       3.35069      -5.74583
                        -----------------------------------------
Total Dipole Moment    :      0.12100      -0.20328      -0.69735
                        -----------------------------------------
Magnitude (a.u.)       :      0.73638
Magnitude (Debye)      :      1.87173

                             ****ORCA TERMINATED NORMALLY****
TOTAL RUN TIME: 0 days 0 hours 17 minutes 46 seconds 961 msec
