                         Program Version 3.0.3 - RELEASE   -
|  1> ! RI-MP2 RIJK def2-TZVP def2-TZVP/C def2-TZVP/JK TIGHTSCF
|  2> % maxcore 2000
|  3> % mp2 density relaxed end
|  4> *xyz 0 1
|  5>  C       -0.1611622163     1.5051196419    -0.0764740308
|  6>  C        0.0149900868     0.0147244065     0.0937891659
|  7>  O        0.1054591383    -0.5214937870     1.1734699515
|  8>  C        0.0395302862    -0.8055991593    -1.2035340012
|  9>  C        0.5506803198    -2.2442822222    -1.0561324925
| 10>  C       -0.2663584914    -3.0748119401    -2.0692464921
| 11>  C       -1.6584926185    -2.4312513857    -2.0386008081
| 12>  C       -1.3956869875    -0.9494959215    -1.7858090836
| 13>  O       -2.1539137889    -0.0408157796    -2.0055059854
| 14>  H        0.7113209403     1.9241484613    -0.5919264456
| 15>  H       -1.0312137170     1.6942190547    -0.7143440107
| 16>  H       -0.2771396030     1.9851333210     0.8957880867
| 17>  H        0.6006991705    -0.2378752096    -1.9571385566
| 18>  H        1.6280107218    -2.3251568854    -1.2177484617
| 19>  H        0.3487416260    -2.5732217825    -0.0321403534
| 20>  H        0.1634976047    -2.9817311243    -3.0734261010
| 21>  H       -0.2819104958    -4.1383861371    -1.8203506051
| 22>  H       -2.2713252119    -2.5718680525    -2.9313192186
| 23>  H       -2.2394802839    -2.8004217386    -1.1816637676
| 24> *
| 25>
| 26>                          ****END OF INPUT****

CARTESIAN COORDINATES (ANGSTROEM)
---------------------------------
  C     -0.161162    1.505120   -0.076474
  C      0.014990    0.014724    0.093789
  O      0.105459   -0.521494    1.173470
  C      0.039530   -0.805599   -1.203534
  C      0.550680   -2.244282   -1.056132
  C     -0.266358   -3.074812   -2.069246
  C     -1.658493   -2.431251   -2.038601
  C     -1.395687   -0.949496   -1.785809
  O     -2.153914   -0.040816   -2.005506
  H      0.711321    1.924148   -0.591926
  H     -1.031214    1.694219   -0.714344
  H     -0.277140    1.985133    0.895788
  H      0.600699   -0.237875   -1.957139
  H      1.628011   -2.325157   -1.217748
  H      0.348742   -2.573222   -0.032140
  H      0.163498   -2.981731   -3.073426
  H     -0.281910   -4.138386   -1.820351
  H     -2.271325   -2.571868   -2.931319
  H     -2.239480   -2.800422   -1.181664

 Total Charge           Charge          ....    0
 Multiplicity           Mult            ....    1
 Number of Electrons    NEL             ....   68
 Basis Dimension        Dim             ....  339

ORBITAL ENERGIES
----------------

  NO   OCC          E(Eh)            E(eV)
   0   2.0000     -20.559752      -559.4593
   1   2.0000     -20.550833      -559.2166
   2   2.0000     -11.346392      -308.7510
   3   2.0000     -11.339118      -308.5531
   4   2.0000     -11.256898      -306.3158
   5   2.0000     -11.245674      -306.0104
   6   2.0000     -11.242355      -305.9200
   7   2.0000     -11.236686      -305.7658
   8   2.0000     -11.229882      -305.5806
   9   2.0000      -1.406577       -38.2749
  10   2.0000      -1.394923       -37.9578
  11   2.0000      -1.140146       -31.0250
  12   2.0000      -1.039384       -28.2831
  13   2.0000      -0.987130       -26.8612
  14   2.0000      -0.946513       -25.7559
  15   2.0000      -0.823840       -22.4178
  16   2.0000      -0.782305       -21.2876
  17   2.0000      -0.721038       -19.6204
  18   2.0000      -0.687292       -18.7022
  19   2.0000      -0.677413       -18.4333
  20   2.0000      -0.645159       -17.5557
  21   2.0000      -0.620400       -16.8819
  22   2.0000      -0.615650       -16.7527
  23   2.0000      -0.588856       -16.0236
  24   2.0000      -0.575597       -15.6628
  25   2.0000      -0.567256       -15.4358
  26   2.0000      -0.559171       -15.2158
  27   2.0000      -0.521571       -14.1927
  28   2.0000      -0.509434       -13.8624
  29   2.0000      -0.496673       -13.5152
  30   2.0000      -0.492913       -13.4128
  31   2.0000      -0.486591       -13.2408
  32   2.0000      -0.421063       -11.4577
  33   2.0000      -0.403447       -10.9783
  34   0.0000       0.113222         3.0809
  35   0.0000       0.124124         3.3776
  36   0.0000       0.146630         3.9900
  37   0.0000       0.153905         4.1880
  38   0.0000       0.164858         4.4860

MULLIKEN ATOMIC CHARGES
-----------------------
   0 C :   -0.426999
   1 C :    0.197881
   2 O :   -0.288926
   3 C :   -0.063070
   4 C :   -0.252730
   5 C :   -0.212888
   6 C :   -0.224092
   7 C :    0.125873
   8 O :   -0.276722
   9 H :    0.140639
  10 H :    0.179048
  11 H :    0.148262
  12 H :    0.132614
  13 H :    0.128508
  14 H :    0.152924
  15 H :    0.118840
  16 H :    0.131708
  17 H :    0.147071
  18 H :    0.142059
Sum of atomic charges:   -0.0000000

LOEWDIN ATOMIC CHARGES
----------------------
   0 C :   -0.275437
   1 C :   -0.324038
   2 O :    0.153025
   3 C :   -0.193283
   4 C :   -0.224348
   5 C :   -0.250961
   6 C :   -0.223351
   7 C :   -0.280095
   8 O :    0.157674
   9 H :    0.138071
  10 H :    0.145323
  11 H :    0.132374
  12 H :    0.175363
  13 H :    0.137459
  14 H :    0.150144
  15 H :    0.138205
  16 H :    0.135914
  17 H :    0.147196
  18 H :    0.160763

  Mayer bond orders larger than 0.1
B(  0-C ,  1-C ) :   0.9358 B(  0-C ,  9-H ) :   0.9133 B(  0-C , 10-H ) :   0.9011
B(  0-C , 11-H ) :   0.9360 B(  1-C ,  2-O ) :   1.9915 B(  1-C ,  3-C ) :   0.8510
B(  3-C ,  4-C ) :   0.9012 B(  3-C ,  7-C ) :   0.8231 B(  3-C , 12-H ) :   0.8899
B(  4-C ,  5-C ) :   0.9022 B(  4-C , 13-H ) :   0.9263 B(  4-C , 14-H ) :   0.9235
B(  5-C ,  6-C ) :   0.9286 B(  5-C , 15-H ) :   0.9319 B(  5-C , 16-H ) :   0.9300
B(  6-C ,  7-C ) :   0.9353 B(  6-C , 17-H ) :   0.9195 B(  6-C , 18-H ) :   0.9042
B(  7-C ,  8-O ) :   1.9919

MP2 TOTAL ENERGY:     -422.373217032 Eh
FINAL SINGLE POINT ENERGY      -422.373217032169

DIPOLE MOMENT
-------------
                                X             Y             Z
Electronic contribution:     -2.19064       2.14861       1.85559
Nuclear contribution   :      2.70623      -2.55923      -2.62353
                        -----------------------------------------
Total Dipole Moment    :      0.51559      -0.41062      -0.76794
                        -----------------------------------------
Magnitude (a.u.)       :      1.01202
Magnitude (Debye)      :      2.57234

                             ****ORCA TERMINATED NORMALLY****
TOTAL RUN TIME: 0 days 0 hours 20 minutes 17 seconds 325 msec
