                         Program Version 3.0.3 - RELEASE   -
|  1> ! RI-MP2 RIJK def2-TZVP def2-TZVP/C def2-TZVP/JK TIGHTSCF
|  2> % maxcore 2000
|  3> % mp2 density relaxed end
|  4> *xyz 0 1
|  5>  O       -0.0722832691     1.3391071839     0.0096296099
|  6>  C        0.0114363130     0.0051827913     0.0026058375
|  7>  C        1.2235189408    -0.6294690393    -0.0077693202
|  8>  C        1.5404027877    -2.0170552176    -0.0163167296
|  9>  N        0.8029934332    -3.0886615521    -0.0181702261
| 10>  C       -0.5595323620    -3.0715580483    -0.0113347745
| 11>  C       -1.4767342991    -2.0629441507    -0.0002969695
| 12>  C       -1.3502790284    -0.6151087495     0.0081481989
| 13>  O       -2.3299834849     0.1141418022     0.0192711366
| 14>  H        0.8132078240     1.7246437089     0.0058581357
| 15>  H        2.0996447118     0.0196551363    -0.0096032679
| 16>  H        2.6142114697    -2.2158599095    -0.0226856067
| 17>  H       -0.9784475644    -4.0772394868    -0.0154084817
| 18>  H       -2.5206478223    -2.3655033387     0.0034571877
| 19> *
| 20>
| 21>                          ****END OF INPUT****

CARTESIAN COORDINATES (ANGSTROEM)
---------------------------------
  O     -0.072283    1.339107    0.009630
  C      0.011436    0.005183    0.002606
  C      1.223519   -0.629469   -0.007769
  C      1.540403   -2.017055   -0.016317
  N      0.802993   -3.088662   -0.018170
  C     -0.559532   -3.071558   -0.011335
  C     -1.476734   -2.062944   -0.000297
  C     -1.350279   -0.615109    0.008148
  O     -2.329983    0.114142    0.019271
  H      0.813208    1.724644    0.005858
  H      2.099645    0.019655   -0.009603
  H      2.614211   -2.215860   -0.022686
  H     -0.978448   -4.077239   -0.015408
  H     -2.520648   -2.365503    0.003457

 Total Charge           Charge          ....    0
 Multiplicity           Mult            ....    1
 Number of Electrons    NEL             ....   64
 Basis Dimension        Dim             ....  309

ORBITAL ENERGIES
----------------

  NO   OCC          E(Eh)            E(eV)
   0   2.0000     -20.629192      -561.3488
   1   2.0000     -20.540816      -558.9440
   2   2.0000     -15.578465      -423.9116
   3   2.0000     -11.363792      -309.2245
   4   2.0000     -11.345858      -308.7365
   5   2.0000     -11.320973      -308.0593
   6   2.0000     -11.301173      -307.5205
   7   2.0000     -11.271572      -306.7151
   8   2.0000     -11.249569      -306.1163
   9   2.0000      -1.459275       -39.7089
  10   2.0000      -1.380851       -37.5749
  11   2.0000      -1.267463       -34.4894
  12   2.0000      -1.096780       -29.8449
  13   2.0000      -1.072441       -29.1826
  14   2.0000      -0.943651       -25.6781
  15   2.0000      -0.919413       -25.0185
  16   2.0000      -0.820138       -22.3171
  17   2.0000      -0.774859       -21.0850
  18   2.0000      -0.727477       -19.7957
  19   2.0000      -0.696480       -18.9522
  20   2.0000      -0.642769       -17.4906
  21   2.0000      -0.636544       -17.3212
  22   2.0000      -0.635636       -17.2965
  23   2.0000      -0.625887       -17.0312
  24   2.0000      -0.572381       -15.5753
  25   2.0000      -0.553428       -15.0595
  26   2.0000      -0.552151       -15.0248
  27   2.0000      -0.521841       -14.2000
  28   2.0000      -0.441942       -12.0259
  29   2.0000      -0.432642       -11.7728
  30   2.0000      -0.403488       -10.9795
  31   2.0000      -0.339127        -9.2281
  32   0.0000       0.040404         1.0995
  33   0.0000       0.066112         1.7990
  34   0.0000       0.115697         3.1483
  35   0.0000       0.150750         4.1021
  36   0.0000       0.167184         4.5493

MULLIKEN ATOMIC CHARGES
-----------------------
   0 O :   -0.338604
   1 C :    0.177668
   2 C :   -0.172829
   3 C :   -0.015428
   4 N :   -0.245907
   5 C :    0.023121
   6 C :   -0.180725
   7 C :    0.197952
   8 O :   -0.300662
   9 H :    0.332090
  10 H :    0.111160
  11 H :    0.131073
  12 H :    0.135035
  13 H :    0.146056
Sum of atomic charges:    0.0000000

LOEWDIN ATOMIC CHARGES
----------------------
   0 O :    0.150226
   1 C :   -0.224349
   2 C :   -0.153559
   3 C :   -0.213024
   4 N :    0.130882
   5 C :   -0.209083
   6 C :   -0.104870
   7 C :   -0.336444
   8 O :    0.139336
   9 H :    0.199602
  10 H :    0.156835
  11 H :    0.147602
  12 H :    0.149851
  13 H :    0.166994

  Mayer bond orders larger than 0.1
B(  0-O ,  1-C ) :   1.2199 B(  0-O ,  9-H ) :   0.8225 B(  1-C ,  2-C ) :   1.4460
B(  1-C ,  7-C ) :   0.9112 B(  2-C ,  3-C ) :   1.1276 B(  2-C , 10-H ) :   0.9201
B(  3-C ,  4-N ) :   1.6045 B(  3-C , 11-H ) :   0.9434 B(  4-N ,  5-C ) :   1.1980
B(  5-C ,  6-C ) :   1.4650 B(  5-C , 12-H ) :   0.9482 B(  6-C ,  7-C ) :   1.1306
B(  6-C , 13-H ) :   0.9025 B(  7-C ,  8-O ) :   1.9354

MP2 TOTAL ENERGY:     -435.975672749 Eh
FINAL SINGLE POINT ENERGY      -435.975672749344

DIPOLE MOMENT
-------------
                                X             Y             Z
Electronic contribution:     -1.69889       1.76329       0.02138
Nuclear contribution   :      3.11844      -1.57770      -0.03067
                        -----------------------------------------
Total Dipole Moment    :      1.41956       0.18559      -0.00929
                        -----------------------------------------
Magnitude (a.u.)       :      1.43167
Magnitude (Debye)      :      3.63901

                             ****ORCA TERMINATED NORMALLY****
TOTAL RUN TIME: 0 days 0 hours 14 minutes 44 seconds 173 msec
