                         Program Version 3.0.3 - RELEASE   -
|  1> ! RI-MP2 RIJK def2-TZVP def2-TZVP/C def2-TZVP/JK TIGHTSCF
|  2> % maxcore 2000
|  3> % mp2 density relaxed end
|  4> *xyz 0 1
|  5>  C       -0.0323473206     1.5012254135     0.0237334968
|  6>  N       -0.0434741144     0.0579682758     0.1038249638
|  7>  C       -1.2971929155    -0.6274105542     0.4867992720
|  8>  C       -0.4662445882    -1.5708964307     1.3527072124
|  9>  C       -0.8012972631    -2.5193782569     2.4065377089
| 10>  O       -0.3530808428    -2.9501855218     1.1086556766
| 11>  C        0.7138763699    -0.5821567412     1.2114871495
| 12>  C        2.0373574656    -1.0872633683     0.8988988315
| 13>  C        3.1377845062    -1.5088951538     0.6638464569
| 14>  H        0.9847233179     1.8489097471    -0.1821571050
| 15>  H       -0.6731284535     1.8300059600    -0.8006460947
| 16>  H       -0.3853471567     1.9931233927     0.9509791337
| 17>  H       -1.9857027433    -0.0029283356     1.0799974811
| 18>  H       -1.8433205637    -1.0816936533    -0.3459182613
| 19>  H       -0.0988836412    -2.6932562676     3.2206146827
| 20>  H       -1.8448561128    -2.7326789443     2.6343827203
| 21>  H        0.7661327328     0.0642934872     2.1064817237
| 22>  H        4.1042442531    -1.8892079888     0.4422682009
| 23> *
| 24>
| 25>                          ****END OF INPUT****

CARTESIAN COORDINATES (ANGSTROEM)
---------------------------------
  C     -0.032347    1.501225    0.023733
  N     -0.043474    0.057968    0.103825
  C     -1.297193   -0.627411    0.486799
  C     -0.466245   -1.570896    1.352707
  C     -0.801297   -2.519378    2.406538
  O     -0.353081   -2.950186    1.108656
  C      0.713876   -0.582157    1.211487
  C      2.037357   -1.087263    0.898899
  C      3.137785   -1.508895    0.663846
  H      0.984723    1.848910   -0.182157
  H     -0.673128    1.830006   -0.800646
  H     -0.385347    1.993123    0.950979
  H     -1.985703   -0.002928    1.079997
  H     -1.843321   -1.081694   -0.345918
  H     -0.098884   -2.693256    3.220615
  H     -1.844856   -2.732679    2.634383
  H      0.766133    0.064293    2.106482
  H      4.104244   -1.889208    0.442268

 Total Charge           Charge          ....    0
 Multiplicity           Mult            ....    1
 Number of Electrons    NEL             ....   66
 Basis Dimension        Dim             ....  333

ORBITAL ENERGIES
----------------

  NO   OCC          E(Eh)            E(eV)
   0   2.0000     -20.575006      -559.8744
   1   2.0000     -15.560430      -423.4208
   2   2.0000     -11.304512      -307.6114
   3   2.0000     -11.291274      -307.2512
   4   2.0000     -11.289367      -307.1993
   5   2.0000     -11.264298      -306.5171
   6   2.0000     -11.251062      -306.1570
   7   2.0000     -11.231411      -305.6222
   8   2.0000     -11.223900      -305.4178
   9   2.0000      -1.424108       -38.7520
  10   2.0000      -1.261888       -34.3377
  11   2.0000      -1.050295       -28.5800
  12   2.0000      -1.015169       -27.6242
  13   2.0000      -0.944516       -25.7016
  14   2.0000      -0.924819       -25.1656
  15   2.0000      -0.850713       -23.1491
  16   2.0000      -0.782239       -21.2858
  17   2.0000      -0.723682       -19.6924
  18   2.0000      -0.691704       -18.8222
  19   2.0000      -0.688088       -18.7238
  20   2.0000      -0.676256       -18.4019
  21   2.0000      -0.613273       -16.6880
  22   2.0000      -0.597538       -16.2598
  23   2.0000      -0.587512       -15.9870
  24   2.0000      -0.574410       -15.6305
  25   2.0000      -0.518569       -14.1110
  26   2.0000      -0.510454       -13.8902
  27   2.0000      -0.501538       -13.6475
  28   2.0000      -0.453820       -12.3491
  29   2.0000      -0.446427       -12.1479
  30   2.0000      -0.390052       -10.6138
  31   2.0000      -0.382746       -10.4150
  32   2.0000      -0.371380       -10.1058
  33   0.0000       0.133680         3.6376
  34   0.0000       0.149707         4.0737
  35   0.0000       0.165740         4.5100
  36   0.0000       0.168705         4.5907
  37   0.0000       0.176008         4.7894

MULLIKEN ATOMIC CHARGES
-----------------------
   0 C :   -0.333256
   1 N :   -0.129857
   2 C :   -0.143680
   3 C :    0.146842
   4 C :   -0.098792
   5 O :   -0.317353
   6 C :   -0.151867
   7 C :   -0.018886
   8 C :   -0.117882
   9 H :    0.146895
  10 H :    0.141291
  11 H :    0.104485
  12 H :    0.103228
  13 H :    0.123684
  14 H :    0.124044
  15 H :    0.120489
  16 H :    0.107772
  17 H :    0.192842
Sum of atomic charges:    0.0000000

LOEWDIN ATOMIC CHARGES
----------------------
   0 C :   -0.336448
   1 N :    0.103477
   2 C :   -0.207422
   3 C :   -0.289026
   4 C :   -0.233452
   5 O :    0.190395
   6 C :   -0.207620
   7 C :   -0.078875
   8 C :   -0.079892
   9 H :    0.123441
  10 H :    0.120868
  11 H :    0.101228
  12 H :    0.126304
  13 H :    0.131801
  14 H :    0.125314
  15 H :    0.123180
  16 H :    0.159043
  17 H :    0.127682

  Mayer bond orders larger than 0.1
B(  0-C ,  1-N ) :   0.9041 B(  0-C ,  9-H ) :   0.9345 B(  0-C , 10-H ) :   0.9357
B(  0-C , 11-H ) :   0.9256 B(  1-N ,  2-C ) :   0.9340 B(  1-N ,  6-C ) :   0.8929
B(  2-C ,  3-C ) :   0.9226 B(  2-C , 12-H ) :   0.9127 B(  2-C , 13-H ) :   0.9063
B(  3-C ,  4-C ) :   0.9842 B(  3-C ,  5-O ) :   0.9390 B(  3-C ,  6-C ) :   0.8653
B(  4-C ,  5-O ) :   0.9056 B(  4-C , 14-H ) :   0.9053 B(  4-C , 15-H ) :   0.9153
B(  6-C ,  7-C ) :   1.1914 B(  6-C ,  8-C ) :  -0.1101 B(  6-C , 16-H ) :   0.9375
B(  7-C ,  8-C ) :   2.5964 B(  8-C , 17-H ) :   0.8840

MP2 TOTAL ENERGY:     -401.151364858 Eh
FINAL SINGLE POINT ENERGY      -401.151364857640

DIPOLE MOMENT
-------------
                                X             Y             Z
Electronic contribution:      2.72808      -5.45275      -0.11290
Nuclear contribution   :     -3.14092       6.10911       0.79567
                        -----------------------------------------
Total Dipole Moment    :     -0.41283       0.65636       0.68277
                        -----------------------------------------
Magnitude (a.u.)       :      1.03316
Magnitude (Debye)      :      2.62607

                             ****ORCA TERMINATED NORMALLY****
TOTAL RUN TIME: 0 days 0 hours 17 minutes 48 seconds 24 msec
