                         Program Version 3.0.3 - RELEASE   -
|  1> ! RI-MP2 RIJK def2-TZVP def2-TZVP/C def2-TZVP/JK TIGHTSCF
|  2> % maxcore 2000
|  3> % mp2 density relaxed end
|  4> *xyz 0 1
|  5>  O       -0.1148189448    -0.0778455140    -0.4620181350
|  6>  C       -0.0724636831     1.1124544879    -0.2426506926
|  7>  N        1.0521391503     1.8082204066     0.1277138413
|  8>  C        1.0225040669     3.2683711093     0.2271156523
|  9>  C        1.9742887049     3.8029637103     1.2808290724
| 10>  C        2.1490618254     3.1479887400     2.6181667544
| 11>  C        3.2282377558     3.0009083855     1.5457499500
| 12>  C        3.3349283724     1.7004817281     0.8440619281
| 13>  C        2.2886164845     1.1474526198     0.2237329357
| 14>  H       -0.9567707359     1.7745473512    -0.3136980659
| 15>  H        1.3068292120     3.7071896842    -0.7404306018
| 16>  H       -0.0090380844     3.5724542897     0.4338151661
| 17>  H        2.0778514592     4.8836239012     1.2462687461
| 18>  H        2.3571915345     3.7846731927     3.4711932498
| 19>  H        1.5668730718     2.2613908464     2.8437988604
| 20>  H        4.1539676651     3.5424657142     1.7070473009
| 21>  H        4.2732884454     1.1598050801     0.8792791426
| 22>  H        2.2932591800     0.1643025466    -0.2272913349
| 23> *
| 24>
| 25>                          ****END OF INPUT****

CARTESIAN COORDINATES (ANGSTROEM)
---------------------------------
  O     -0.114819   -0.077846   -0.462018
  C     -0.072464    1.112454   -0.242651
  N      1.052139    1.808220    0.127714
  C      1.022504    3.268371    0.227116
  C      1.974289    3.802964    1.280829
  C      2.149062    3.147989    2.618167
  C      3.228238    3.000908    1.545750
  C      3.334928    1.700482    0.844062
  C      2.288616    1.147453    0.223733
  H     -0.956771    1.774547   -0.313698
  H      1.306829    3.707190   -0.740431
  H     -0.009038    3.572454    0.433815
  H      2.077851    4.883624    1.246269
  H      2.357192    3.784673    3.471193
  H      1.566873    2.261391    2.843799
  H      4.153968    3.542466    1.707047
  H      4.273288    1.159805    0.879279
  H      2.293259    0.164303   -0.227291

 Total Charge           Charge          ....    0
 Multiplicity           Mult            ....    1
 Number of Electrons    NEL             ....   66
 Basis Dimension        Dim             ....  333

ORBITAL ENERGIES
----------------

  NO   OCC          E(Eh)            E(eV)
   0   2.0000     -20.529580      -558.6383
   1   2.0000     -15.602863      -424.5755
   2   2.0000     -11.353043      -308.9320
   3   2.0000     -11.285912      -307.1053
   4   2.0000     -11.266190      -306.5686
   5   2.0000     -11.249561      -306.1161
   6   2.0000     -11.245415      -306.0033
   7   2.0000     -11.237454      -305.7867
   8   2.0000     -11.230007      -305.5840
   9   2.0000      -1.391106       -37.8539
  10   2.0000      -1.274662       -34.6853
  11   2.0000      -1.161269       -31.5997
  12   2.0000      -1.050634       -28.5892
  13   2.0000      -0.970734       -26.4150
  14   2.0000      -0.890385       -24.2286
  15   2.0000      -0.820304       -22.3216
  16   2.0000      -0.814130       -22.1536
  17   2.0000      -0.729059       -19.8387
  18   2.0000      -0.704639       -19.1742
  19   2.0000      -0.674576       -18.3562
  20   2.0000      -0.663517       -18.0552
  21   2.0000      -0.637295       -17.3417
  22   2.0000      -0.613743       -16.7008
  23   2.0000      -0.603617       -16.4253
  24   2.0000      -0.567640       -15.4463
  25   2.0000      -0.556185       -15.1346
  26   2.0000      -0.529545       -14.4097
  27   2.0000      -0.509085       -13.8529
  28   2.0000      -0.477481       -12.9929
  29   2.0000      -0.436980       -11.8908
  30   2.0000      -0.428970       -11.6729
  31   2.0000      -0.418165       -11.3788
  32   2.0000      -0.314493        -8.5578
  33   0.0000       0.126101         3.4314
  34   0.0000       0.133124         3.6225
  35   0.0000       0.156136         4.2487
  36   0.0000       0.174007         4.7350
  37   0.0000       0.176645         4.8067

MULLIKEN ATOMIC CHARGES
-----------------------
   0 O :   -0.344619
   1 C :    0.146408
   2 N :   -0.063956
   3 C :   -0.172753
   4 C :   -0.095450
   5 C :   -0.292611
   6 C :   -0.038278
   7 C :   -0.209608
   8 C :   -0.112007
   9 H :    0.079995
  10 H :    0.127967
  11 H :    0.131972
  12 H :    0.129926
  13 H :    0.137419
  14 H :    0.152328
  15 H :    0.129894
  16 H :    0.133210
  17 H :    0.160162
Sum of atomic charges:    0.0000000

LOEWDIN ATOMIC CHARGES
----------------------
   0 O :    0.073255
   1 C :   -0.398574
   2 N :    0.194426
   3 C :   -0.219354
   4 C :   -0.205206
   5 C :   -0.186715
   6 C :   -0.191391
   7 C :   -0.164948
   8 C :   -0.181797
   9 H :    0.114602
  10 H :    0.141527
  11 H :    0.141743
  12 H :    0.152956
  13 H :    0.134379
  14 H :    0.142307
  15 H :    0.149807
  16 H :    0.150318
  17 H :    0.152665

  Mayer bond orders larger than 0.1
B(  0-O ,  1-C ) :   1.9000 B(  1-C ,  2-N ) :   1.0903 B(  1-C ,  9-H ) :   0.9294
B(  2-N ,  3-C ) :   0.9121 B(  2-N ,  8-C ) :   0.9685 B(  3-C ,  4-C ) :   0.9397
B(  3-C , 10-H ) :   0.9226 B(  3-C , 11-H ) :   0.9220 B(  4-C ,  5-C ) :   0.8983
B(  4-C ,  6-C ) :   0.8711 B(  4-C , 12-H ) :   0.9211 B(  5-C ,  6-C ) :   0.8336
B(  5-C , 13-H ) :   0.9265 B(  5-C , 14-H ) :   0.9245 B(  6-C ,  7-C ) :   0.9521
B(  6-C , 15-H ) :   0.9306 B(  7-C ,  8-C ) :   1.7081 B(  7-C , 16-H ) :   0.9323
B(  8-C , 17-H ) :   0.9222

MP2 TOTAL ENERGY:     -401.274965336 Eh
FINAL SINGLE POINT ENERGY      -401.274965335807

DIPOLE MOMENT
-------------
                                X             Y             Z
Electronic contribution:     -1.99937      -4.26407      -2.69059
Nuclear contribution   :      2.44927       5.76439       3.09667
                        -----------------------------------------
Total Dipole Moment    :      0.44990       1.50032       0.40609
                        -----------------------------------------
Magnitude (a.u.)       :      1.61811
Magnitude (Debye)      :      4.11290

                             ****ORCA TERMINATED NORMALLY****
TOTAL RUN TIME: 0 days 0 hours 18 minutes 40 seconds 503 msec
