                         Program Version 3.0.3 - RELEASE   -
|  1> ! RI-MP2 RIJK def2-TZVP def2-TZVP/C def2-TZVP/JK TIGHTSCF
|  2> % maxcore 2000
|  3> % mp2 density relaxed end
|  4> *xyz 0 1
|  5>  C        0.0371167474     1.4915279261     0.0894845417
|  6>  C        0.0604918660     0.0002011345    -0.0132677057
|  7>  C        0.0284832390    -0.7803655159    -1.1168261495
|  8>  C        0.0276355774    -2.2530671708    -0.7613571135
|  9>  C        0.4866280011    -2.2609006851     0.7147601734
| 10>  O        1.8837839331    -2.4860570307     0.8392925617
| 11>  C        0.0892285772    -0.8565465170     1.2332863885
| 12>  C       -0.0358505343    -0.3282141705    -2.5053699085
| 13>  O       -0.0897275403    -1.0816736534    -3.4558187353
| 14>  H        0.9233138916     1.8503083001     0.6276822929
| 15>  H       -0.0012987958     1.9928428522    -0.8787591497
| 16>  H       -0.8301577474     1.8176560186     0.6774752534
| 17>  H       -0.9789270746    -2.6753268857    -0.8755818228
| 18>  H        0.6910305562    -2.8522442567    -1.3910350795
| 19>  H        0.0217786268    -3.0611182547     1.2947627466
| 20>  H        2.3357714809    -1.8620407109     0.2599432855
| 21>  H        0.7932849467    -0.5009442783     1.9939169885
| 22>  H       -0.9060205973    -0.8637409048     1.7014897330
| 23>  H       -0.0298311037     0.7720314427    -2.6603510708
| 24> *
| 25>
| 26>                          ****END OF INPUT****

CARTESIAN COORDINATES (ANGSTROEM)
---------------------------------
  C      0.037117    1.491528    0.089485
  C      0.060492    0.000201   -0.013268
  C      0.028483   -0.780366   -1.116826
  C      0.027636   -2.253067   -0.761357
  C      0.486628   -2.260901    0.714760
  O      1.883784   -2.486057    0.839293
  C      0.089229   -0.856547    1.233286
  C     -0.035851   -0.328214   -2.505370
  O     -0.089728   -1.081674   -3.455819
  H      0.923314    1.850308    0.627682
  H     -0.001299    1.992843   -0.878759
  H     -0.830158    1.817656    0.677475
  H     -0.978927   -2.675327   -0.875582
  H      0.691031   -2.852244   -1.391035
  H      0.021779   -3.061118    1.294763
  H      2.335771   -1.862041    0.259943
  H      0.793285   -0.500944    1.993917
  H     -0.906021   -0.863741    1.701490
  H     -0.029831    0.772031   -2.660351

 Total Charge           Charge          ....    0
 Multiplicity           Mult            ....    1
 Number of Electrons    NEL             ....   68
 Basis Dimension        Dim             ....  339

ORBITAL ENERGIES
----------------

  NO   OCC          E(Eh)            E(eV)
   0   2.0000     -20.558562      -559.4269
   1   2.0000     -20.549537      -559.1813
   2   2.0000     -11.329469      -308.2905
   3   2.0000     -11.289140      -307.1931
   4   2.0000     -11.275357      -306.8181
   5   2.0000     -11.249867      -306.1245
   6   2.0000     -11.241968      -305.9095
   7   2.0000     -11.241084      -305.8854
   8   2.0000     -11.230294      -305.5918
   9   2.0000      -1.385438       -37.6997
  10   2.0000      -1.366808       -37.1927
  11   2.0000      -1.159033       -31.5389
  12   2.0000      -1.029536       -28.0151
  13   2.0000      -0.999911       -27.2090
  14   2.0000      -0.932207       -25.3666
  15   2.0000      -0.857361       -23.3300
  16   2.0000      -0.804403       -21.8889
  17   2.0000      -0.725352       -19.7378
  18   2.0000      -0.695010       -18.9122
  19   2.0000      -0.663981       -18.0678
  20   2.0000      -0.646106       -17.5814
  21   2.0000      -0.633767       -17.2457
  22   2.0000      -0.606853       -16.5133
  23   2.0000      -0.596555       -16.2331
  24   2.0000      -0.588783       -16.0216
  25   2.0000      -0.553150       -15.0520
  26   2.0000      -0.543267       -14.7831
  27   2.0000      -0.531895       -14.4736
  28   2.0000      -0.518690       -14.1143
  29   2.0000      -0.517275       -14.0758
  30   2.0000      -0.482535       -13.1304
  31   2.0000      -0.439844       -11.9688
  32   2.0000      -0.421781       -11.4772
  33   2.0000      -0.360888        -9.8203
  34   0.0000       0.083081         2.2607
  35   0.0000       0.119588         3.2541
  36   0.0000       0.146581         3.9887
  37   0.0000       0.160100         4.3566
  38   0.0000       0.173790         4.7291

MULLIKEN ATOMIC CHARGES
-----------------------
   0 C :   -0.404885
   1 C :    0.010469
   2 C :   -0.030988
   3 C :   -0.233849
   4 C :    0.094176
   5 O :   -0.463674
   6 C :   -0.223182
   7 C :    0.044528
   8 O :   -0.284378
   9 H :    0.150021
  10 H :    0.136598
  11 H :    0.149012
  12 H :    0.126929
  13 H :    0.156732
  14 H :    0.112825
  15 H :    0.316184
  16 H :    0.143845
  17 H :    0.128293
  18 H :    0.071345
Sum of atomic charges:    0.0000000

LOEWDIN ATOMIC CHARGES
----------------------
   0 C :   -0.265694
   1 C :   -0.131799
   2 C :   -0.162018
   3 C :   -0.192241
   4 C :   -0.311939
   5 O :   -0.019285
   6 C :   -0.198012
   7 C :   -0.277354
   8 O :    0.123567
   9 H :    0.137826
  10 H :    0.127885
  11 H :    0.138698
  12 H :    0.150626
  13 H :    0.149635
  14 H :    0.140503
  15 H :    0.176955
  16 H :    0.146313
  17 H :    0.151418
  18 H :    0.114914

  Mayer bond orders larger than 0.1
B(  0-C ,  1-C ) :   0.8979 B(  0-C ,  9-H ) :   0.9305 B(  0-C , 10-H ) :   0.9494
B(  0-C , 11-H ) :   0.9210 B(  1-C ,  2-C ) :   1.5684 B(  1-C ,  6-C ) :   0.9292
B(  2-C ,  3-C ) :   0.9041 B(  2-C ,  7-C ) :   0.8891 B(  2-C ,  8-O ) :  -0.1095
B(  2-C , 18-H ) :  -0.1172 B(  3-C ,  4-C ) :   0.9338 B(  3-C , 12-H ) :   0.8987
B(  3-C , 13-H ) :   0.9281 B(  4-C ,  5-O ) :   0.9473 B(  4-C ,  6-C ) :   0.9134
B(  4-C , 14-H ) :   0.9405 B(  5-O , 15-H ) :   0.8409 B(  6-C , 16-H ) :   0.9278
B(  6-C , 17-H ) :   0.8890 B(  7-C ,  8-O ) :   1.9848 B(  7-C , 18-H ) :   0.9968

MP2 TOTAL ENERGY:     -422.348544214 Eh
FINAL SINGLE POINT ENERGY      -422.348544213635

DIPOLE MOMENT
-------------
                                X             Y             Z
Electronic contribution:      0.71980      -2.99222      -4.91586
Nuclear contribution   :     -0.99407       4.02932       5.84511
                        -----------------------------------------
Total Dipole Moment    :     -0.27426       1.03710       0.92925
                        -----------------------------------------
Magnitude (a.u.)       :      1.41926
Magnitude (Debye)      :      3.60747

                             ****ORCA TERMINATED NORMALLY****
TOTAL RUN TIME: 0 days 0 hours 19 minutes 15 seconds 837 msec
