                         Program Version 3.0.3 - RELEASE   -
|  1> ! RI-MP2 RIJK def2-TZVP def2-TZVP/C def2-TZVP/JK TIGHTSCF
|  2> % maxcore 2000
|  3> % mp2 density relaxed end
|  4> *xyz 0 1
|  5>  C        0.4080824246     1.0511331495    -0.1385680436
|  6>  C        0.1139566965    -0.3727397919    -0.0766154602
|  7>  C       -0.1296738297    -1.5510992291    -0.0310713093
|  8>  C       -0.4273680334    -2.9828160272     0.0208123358
|  9>  C       -1.9230149337    -3.2762455340    -0.0818913885
| 10>  O        0.1948927500    -3.6968691701    -1.0673847135
| 11>  C        1.5405648887    -3.7768145630    -1.0394973854
| 12>  N        2.1522450592    -4.3856010598    -1.9605895672
| 13>  H        0.9266729690     1.3027180909    -1.0699674181
| 14>  H       -0.5098782076     1.6473260108    -0.0985627631
| 15>  H        1.0470720144     1.3639760067     0.6942226175
| 16>  H       -0.0450552799    -3.3955459939     0.9660518605
| 17>  H       -2.4558982066    -2.7914505333     0.7394289013
| 18>  H       -2.3137953052    -2.8972147734    -1.0287975887
| 19>  H       -2.0914410342    -4.3548535186    -0.0352385219
| 20>  H        1.9947907055    -3.2800157880    -0.1722585654
| 21>  H        3.1543481523    -4.3618827156    -1.7828471702
| 22> *
| 23>
| 24>                          ****END OF INPUT****

CARTESIAN COORDINATES (ANGSTROEM)
---------------------------------
  C      0.408082    1.051133   -0.138568
  C      0.113957   -0.372740   -0.076615
  C     -0.129674   -1.551099   -0.031071
  C     -0.427368   -2.982816    0.020812
  C     -1.923015   -3.276246   -0.081891
  O      0.194893   -3.696869   -1.067385
  C      1.540565   -3.776815   -1.039497
  N      2.152245   -4.385601   -1.960590
  H      0.926673    1.302718   -1.069967
  H     -0.509878    1.647326   -0.098563
  H      1.047072    1.363976    0.694223
  H     -0.045055   -3.395546    0.966052
  H     -2.455898   -2.791451    0.739429
  H     -2.313795   -2.897215   -1.028798
  H     -2.091441   -4.354854   -0.035239
  H      1.994791   -3.280016   -0.172259
  H      3.154348   -4.361883   -1.782847

 Total Charge           Charge          ....    0
 Multiplicity           Mult            ....    1
 Number of Electrons    NEL             ....   60
 Basis Dimension        Dim             ....  302

ORBITAL ENERGIES
----------------

  NO   OCC          E(Eh)            E(eV)
   0   2.0000     -20.590495      -560.2959
   1   2.0000     -15.535649      -422.7465
   2   2.0000     -11.333495      -308.4001
   3   2.0000     -11.326068      -308.1980
   4   2.0000     -11.256808      -306.3133
   5   2.0000     -11.242350      -305.9199
   6   2.0000     -11.230638      -305.6012
   7   2.0000     -11.228245      -305.5361
   8   2.0000      -1.425765       -38.7970
   9   2.0000      -1.195826       -32.5401
  10   2.0000      -1.085965       -29.5506
  11   2.0000      -1.042008       -28.3545
  12   2.0000      -0.963452       -26.2169
  13   2.0000      -0.878476       -23.9045
  14   2.0000      -0.828839       -22.5538
  15   2.0000      -0.734124       -19.9765
  16   2.0000      -0.702524       -19.1167
  17   2.0000      -0.663282       -18.0488
  18   2.0000      -0.639593       -17.4042
  19   2.0000      -0.599801       -16.3214
  20   2.0000      -0.596945       -16.2437
  21   2.0000      -0.581403       -15.8208
  22   2.0000      -0.568884       -15.4801
  23   2.0000      -0.550641       -14.9837
  24   2.0000      -0.537172       -14.6172
  25   2.0000      -0.517613       -14.0850
  26   2.0000      -0.433874       -11.8063
  27   2.0000      -0.402751       -10.9594
  28   2.0000      -0.389339       -10.5945
  29   2.0000      -0.382567       -10.4102
  30   0.0000       0.123849         3.3701
  31   0.0000       0.138896         3.7796
  32   0.0000       0.154234         4.1969
  33   0.0000       0.164822         4.4850
  34   0.0000       0.173671         4.7258

MULLIKEN ATOMIC CHARGES
-----------------------
   0 C :   -0.483407
   1 C :    0.053680
   2 C :   -0.036275
   3 C :   -0.056265
   4 C :   -0.357920
   5 O :   -0.203876
   6 C :    0.065672
   7 N :   -0.340343
   8 H :    0.169415
   9 H :    0.166017
  10 H :    0.163945
  11 H :    0.131279
  12 H :    0.130744
  13 H :    0.142151
  14 H :    0.144533
  15 H :    0.087024
  16 H :    0.223628
Sum of atomic charges:   -0.0000000

LOEWDIN ATOMIC CHARGES
----------------------
   0 C :   -0.290327
   1 C :   -0.087394
   2 C :   -0.072156
   3 C :   -0.320424
   4 C :   -0.268167
   5 O :    0.260700
   6 C :   -0.396623
   7 N :   -0.082345
   8 H :    0.144698
   9 H :    0.143116
  10 H :    0.141886
  11 H :    0.154221
  12 H :    0.130907
  13 H :    0.133165
  14 H :    0.129500
  15 H :    0.112101
  16 H :    0.167141

  Mayer bond orders larger than 0.1
B(  0-C ,  1-C ) :   0.8518 B(  0-C ,  8-H ) :   0.9414 B(  0-C ,  9-H ) :   0.9478
B(  0-C , 10-H ) :   0.9488 B(  1-C ,  2-C ) :   2.7125 B(  2-C ,  3-C ) :   0.9740
B(  3-C ,  4-C ) :   0.9318 B(  3-C ,  5-O ) :   0.8934 B(  3-C , 11-H ) :   0.9901
B(  4-C , 12-H ) :   0.9279 B(  4-C , 13-H ) :   0.9322 B(  4-C , 14-H ) :   0.9352
B(  5-O ,  6-C ) :   1.0571 B(  6-C ,  7-N ) :   1.9501 B(  6-C , 15-H ) :   0.9280
B(  7-N , 16-H ) :   0.8509

MP2 TOTAL ENERGY:     -363.202345872 Eh
FINAL SINGLE POINT ENERGY      -363.202345871879

DIPOLE MOMENT
-------------
                                X             Y             Z
Electronic contribution:      2.46545      -3.59965      -1.85678
Nuclear contribution   :     -2.38917       4.63770       3.05689
                        -----------------------------------------
Total Dipole Moment    :      0.07629       1.03805       1.20012
                        -----------------------------------------
Magnitude (a.u.)       :      1.58860
Magnitude (Debye)      :      4.03790

                             ****ORCA TERMINATED NORMALLY****
TOTAL RUN TIME: 0 days 0 hours 10 minutes 14 seconds 266 msec
