                         Program Version 3.0.3 - RELEASE   -
|  1> ! RI-MP2 RIJK def2-TZVP def2-TZVP/C def2-TZVP/JK TIGHTSCF
|  2> % maxcore 2000
|  3> % mp2 density relaxed end
|  4> *xyz 0 1
|  5>  C       -0.2059453744     1.4963088197    -0.2862324584
|  6>  C        0.2640679622     0.0604048178    -0.1738462415
|  7>  O        1.6442985176    -0.0987719196    -0.5795950662
|  8>  C        1.9522009887    -0.8554443305     0.6049479400
|  9>  C        0.5540117539    -0.5794905510     1.2137234634
| 10>  C        0.5681079378     0.3250503503     2.4711524210
| 11>  C        0.2749682254    -0.6408454977     3.5949799127
| 12>  C       -0.1840777468    -1.8054306393     3.1401909635
| 13>  C       -0.2678062381    -1.8195541985     1.6332976620
| 14>  H        0.4181871154     2.1686046003     0.3089624016
| 15>  H       -0.1532024764     1.8192531126    -1.3309502702
| 16>  H       -1.2458506002     1.5932032236     0.0448595973
| 17>  H       -0.3856776913    -0.5862555857    -0.7847637683
| 18>  H        2.1521882372    -1.9119540385     0.3765368989
| 19>  H        2.8124179109    -0.4400634699     1.1447946860
| 20>  H        1.5191239014     0.8571578971     2.5895623313
| 21>  H       -0.2102715797     1.1001285620     2.4243979688
| 22>  H        0.3888190012    -0.3730066782     4.6395721889
| 23>  H       -0.5042678866    -2.6397169074     3.7542424409
| 24>  H       -1.3138153109    -1.7335799360     1.3006733604
| 25>  H        0.1182616127    -2.7411141010     1.1814814179
| 26> *
| 27>
| 28>                          ****END OF INPUT****

CARTESIAN COORDINATES (ANGSTROEM)
---------------------------------
  C     -0.205945    1.496309   -0.286232
  C      0.264068    0.060405   -0.173846
  O      1.644299   -0.098772   -0.579595
  C      1.952201   -0.855444    0.604948
  C      0.554012   -0.579491    1.213723
  C      0.568108    0.325050    2.471152
  C      0.274968   -0.640845    3.594980
  C     -0.184078   -1.805431    3.140191
  C     -0.267806   -1.819554    1.633298
  H      0.418187    2.168605    0.308962
  H     -0.153202    1.819253   -1.330950
  H     -1.245851    1.593203    0.044860
  H     -0.385678   -0.586256   -0.784764
  H      2.152188   -1.911954    0.376537
  H      2.812418   -0.440063    1.144795
  H      1.519124    0.857158    2.589562
  H     -0.210272    1.100129    2.424398
  H      0.388819   -0.373007    4.639572
  H     -0.504268   -2.639717    3.754242
  H     -1.313815   -1.733580    1.300673
  H      0.118262   -2.741114    1.181481

 Total Charge           Charge          ....    0
 Multiplicity           Mult            ....    1
 Number of Electrons    NEL             ....   68
 Basis Dimension        Dim             ....  351

ORBITAL ENERGIES
----------------

  NO   OCC          E(Eh)            E(eV)
   0   2.0000     -20.539963      -558.9208
   1   2.0000     -11.278486      -306.9032
   2   2.0000     -11.270201      -306.6777
   3   2.0000     -11.238886      -305.8256
   4   2.0000     -11.229737      -305.5767
   5   2.0000     -11.229229      -305.5629
   6   2.0000     -11.228410      -305.5406
   7   2.0000     -11.226708      -305.4942
   8   2.0000     -11.215512      -305.1896
   9   2.0000      -1.372369       -37.3441
  10   2.0000      -1.139896       -31.0181
  11   2.0000      -1.021100       -27.7855
  12   2.0000      -0.988109       -26.8878
  13   2.0000      -0.965625       -26.2760
  14   2.0000      -0.882306       -24.0088
  15   2.0000      -0.845546       -23.0085
  16   2.0000      -0.743210       -20.2238
  17   2.0000      -0.720883       -19.6162
  18   2.0000      -0.683975       -18.6119
  19   2.0000      -0.647218       -17.6117
  20   2.0000      -0.638372       -17.3710
  21   2.0000      -0.604615       -16.4524
  22   2.0000      -0.590378       -16.0650
  23   2.0000      -0.567065       -15.4306
  24   2.0000      -0.547165       -14.8891
  25   2.0000      -0.538134       -14.6434
  26   2.0000      -0.527260       -14.3475
  27   2.0000      -0.518133       -14.0991
  28   2.0000      -0.497503       -13.5377
  29   2.0000      -0.479167       -13.0388
  30   2.0000      -0.441678       -12.0187
  31   2.0000      -0.433347       -11.7920
  32   2.0000      -0.404155       -10.9976
  33   2.0000      -0.349620        -9.5136
  34   0.0000       0.132273         3.5993
  35   0.0000       0.153643         4.1808
  36   0.0000       0.162391         4.4189
  37   0.0000       0.167847         4.5673
  38   0.0000       0.173366         4.7175

MULLIKEN ATOMIC CHARGES
-----------------------
   0 C :   -0.408499
   1 C :    0.060785
   2 O :   -0.324877
   3 C :   -0.054398
   4 C :    0.107418
   5 C :   -0.228416
   6 C :   -0.170755
   7 C :   -0.186399
   8 C :   -0.196736
   9 H :    0.134177
  10 H :    0.144262
  11 H :    0.127435
  12 H :    0.075115
  13 H :    0.083963
  14 H :    0.092569
  15 H :    0.128793
  16 H :    0.122921
  17 H :    0.126829
  18 H :    0.126877
  19 H :    0.116436
  20 H :    0.122500
Sum of atomic charges:    0.0000000

LOEWDIN ATOMIC CHARGES
----------------------
   0 C :   -0.297711
   1 C :   -0.271350
   2 O :    0.134006
   3 C :   -0.231106
   4 C :   -0.206439
   5 C :   -0.201110
   6 C :   -0.159042
   7 C :   -0.160602
   8 C :   -0.204518
   9 H :    0.126106
  10 H :    0.130586
  11 H :    0.127309
  12 H :    0.136349
  13 H :    0.116333
  14 H :    0.117076
  15 H :    0.141253
  16 H :    0.146377
  17 H :    0.136010
  18 H :    0.135880
  19 H :    0.144514
  20 H :    0.140078

  Mayer bond orders larger than 0.1
B(  0-C ,  1-C ) :   0.8896 B(  0-C ,  9-H ) :   0.9389 B(  0-C , 10-H ) :   0.9321
B(  0-C , 11-H ) :   0.9302 B(  1-C ,  2-O ) :   0.9893 B(  1-C ,  4-C ) :   0.9339
B(  1-C , 12-H ) :   0.9142 B(  2-O ,  3-C ) :   0.9674 B(  3-C ,  4-C ) :   0.9734
B(  3-C , 13-H ) :   0.8999 B(  3-C , 14-H ) :   0.9033 B(  4-C ,  5-C ) :   0.9123
B(  4-C ,  8-C ) :   0.9147 B(  5-C ,  6-C ) :   0.9432 B(  5-C , 15-H ) :   0.9202
B(  5-C , 16-H ) :   0.9075 B(  6-C ,  7-C ) :   1.7948 B(  6-C , 17-H ) :   0.9302
B(  7-C ,  8-C ) :   0.9463 B(  7-C , 18-H ) :   0.9297 B(  8-C , 19-H ) :   0.9054
B(  8-C , 20-H ) :   0.9190

MP2 TOTAL ENERGY:     -386.403138176 Eh
FINAL SINGLE POINT ENERGY      -386.403138176489

DIPOLE MOMENT
-------------
                                X             Y             Z
Electronic contribution:      2.06906      -1.97044      -0.23014
Nuclear contribution   :     -2.54165       1.86127       0.78318
                        -----------------------------------------
Total Dipole Moment    :     -0.47260      -0.10916       0.55304
                        -----------------------------------------
Magnitude (a.u.)       :      0.73561
Magnitude (Debye)      :      1.86977

                             ****ORCA TERMINATED NORMALLY****
TOTAL RUN TIME: 0 days 0 hours 18 minutes 48 seconds 489 msec
