                         Program Version 3.0.3 - RELEASE   -
|  1> ! RI-MP2 RIJK def2-TZVP def2-TZVP/C def2-TZVP/JK TIGHTSCF
|  2> % maxcore 2000
|  3> % mp2 density relaxed end
|  4> *xyz 0 1
|  5>  C       -0.0045661918     1.4874070721     0.0200479175
|  6>  C        0.0191915584     0.0314242547    -0.0109643115
|  7>  C        0.0438008172    -1.1727807884    -0.0301347087
|  8>  C        0.0590772766    -2.6358721619    -0.0727417690
|  9>  C       -1.3535523681    -3.2133048819     0.1457773375
| 10>  C        0.6737461319    -3.1473883320    -1.3907837994
| 11>  H        0.6021724536     1.8794912473     0.8440847227
| 12>  H        0.3883916874     1.9134531427    -0.9099657435
| 13>  H       -1.0238138569     1.8677840554     0.1515936751
| 14>  H        0.6947896579    -2.9913897301     0.7507495173
| 15>  H       -1.7757006174    -2.8711209380     1.0943251390
| 16>  H       -2.0265362702    -2.8973111953    -0.6574849947
| 17>  H       -1.3207012240    -4.3077182570     0.1556114745
| 18>  H        1.6859839516    -2.7585498882    -1.5294220084
| 19>  H        0.7195433212    -4.2413806262    -1.3907430929
| 20>  H        0.0691598228    -2.8291881133    -2.2458944655
| 21> *
| 22>
| 23>                          ****END OF INPUT****

CARTESIAN COORDINATES (ANGSTROEM)
---------------------------------
  C     -0.004566    1.487407    0.020048
  C      0.019192    0.031424   -0.010964
  C      0.043801   -1.172781   -0.030135
  C      0.059077   -2.635872   -0.072742
  C     -1.353552   -3.213305    0.145777
  C      0.673746   -3.147388   -1.390784
  H      0.602172    1.879491    0.844085
  H      0.388392    1.913453   -0.909966
  H     -1.023814    1.867784    0.151594
  H      0.694790   -2.991390    0.750750
  H     -1.775701   -2.871121    1.094325
  H     -2.026536   -2.897311   -0.657485
  H     -1.320701   -4.307718    0.155611
  H      1.685984   -2.758550   -1.529422
  H      0.719543   -4.241381   -1.390743
  H      0.069160   -2.829188   -2.245894

 Total Charge           Charge          ....    0
 Multiplicity           Mult            ....    1
 Number of Electrons    NEL             ....   46
 Basis Dimension        Dim             ....  246

ORBITAL ENERGIES
----------------

  NO   OCC          E(Eh)            E(eV)
   0   2.0000     -11.249807      -306.1228
   1   2.0000     -11.241418      -305.8945
   2   2.0000     -11.216941      -305.2285
   3   2.0000     -11.216925      -305.2280
   4   2.0000     -11.214594      -305.1646
   5   2.0000     -11.208710      -305.0045
   6   2.0000      -1.093094       -29.7446
   7   2.0000      -1.034129       -28.1401
   8   2.0000      -0.942097       -25.6358
   9   2.0000      -0.931324       -25.3426
  10   2.0000      -0.825314       -22.4579
  11   2.0000      -0.666192       -18.1280
  12   2.0000      -0.621895       -16.9226
  13   2.0000      -0.606235       -16.4965
  14   2.0000      -0.583140       -15.8680
  15   2.0000      -0.579671       -15.7737
  16   2.0000      -0.563519       -15.3341
  17   2.0000      -0.537980       -14.6392
  18   2.0000      -0.514841       -14.0095
  19   2.0000      -0.491057       -13.3623
  20   2.0000      -0.488592       -13.2953
  21   2.0000      -0.360168        -9.8007
  22   2.0000      -0.359769        -9.7898
  23   0.0000       0.131261         3.5718
  24   0.0000       0.150834         4.1044
  25   0.0000       0.176720         4.8088
  26   0.0000       0.183113         4.9828
  27   0.0000       0.196666         5.3515

MULLIKEN ATOMIC CHARGES
-----------------------
   0 C :   -0.486990
   1 C :    0.040192
   2 C :   -0.041698
   3 C :   -0.124768
   4 C :   -0.375490
   5 C :   -0.375490
   6 H :    0.160293
   7 H :    0.160052
   8 H :    0.160050
   9 H :    0.107157
  10 H :    0.135170
  11 H :    0.125126
  12 H :    0.128050
  13 H :    0.135169
  14 H :    0.128051
  15 H :    0.125126
Sum of atomic charges:    0.0000000

LOEWDIN ATOMIC CHARGES
----------------------
   0 C :   -0.298067
   1 C :   -0.108225
   2 C :   -0.069487
   3 C :   -0.296349
   4 C :   -0.278199
   5 C :   -0.278198
   6 H :    0.139586
   7 H :    0.139427
   8 H :    0.139427
   9 H :    0.164532
  10 H :    0.125523
  11 H :    0.125432
  12 H :    0.121820
  13 H :    0.125523
  14 H :    0.121821
  15 H :    0.125432

  Mayer bond orders larger than 0.1
B(  0-C ,  1-C ) :   0.8468 B(  0-C ,  6-H ) :   0.9510 B(  0-C ,  7-H ) :   0.9487
B(  0-C ,  8-H ) :   0.9487 B(  1-C ,  2-C ) :   2.6667 B(  2-C ,  3-C ) :   1.0618
B(  3-C ,  4-C ) :   0.9312 B(  3-C ,  5-C ) :   0.9312 B(  3-C ,  9-H ) :   0.9274
B(  4-C , 10-H ) :   0.9370 B(  4-C , 11-H ) :   0.9300 B(  4-C , 12-H ) :   0.9386
B(  5-C , 13-H ) :   0.9370 B(  5-C , 14-H ) :   0.9386 B(  5-C , 15-H ) :   0.9300

MP2 TOTAL ENERGY:     -234.038960691 Eh
FINAL SINGLE POINT ENERGY      -234.038960691157

DIPOLE MOMENT
-------------
                                X             Y             Z
Electronic contribution:      0.86533       2.36207       1.24313
Nuclear contribution   :     -0.86383      -2.31970      -1.23937
                        -----------------------------------------
Total Dipole Moment    :      0.00150       0.04237       0.00376
                        -----------------------------------------
Magnitude (a.u.)       :      0.04256
Magnitude (Debye)      :      0.10819

                             ****ORCA TERMINATED NORMALLY****
TOTAL RUN TIME: 0 days 0 hours 4 minutes 54 seconds 376 msec
