                         Program Version 3.0.3 - RELEASE   -
|  1> ! RI-MP2 RIJK def2-TZVP def2-TZVP/C def2-TZVP/JK TIGHTSCF
|  2> % maxcore 2000
|  3> % mp2 density relaxed end
|  4> *xyz 0 1
|  5>  C       -0.0140777411     1.4792145369     0.1606565895
|  6>  N        0.0483155466     0.0224025682    -0.0126502165
|  7>  C        0.5965372117    -0.4439115471    -1.2834759429
|  8>  C        0.3684388662    -1.9971321445    -1.2574269729
|  9>  O        1.2529660437    -2.7882611757    -1.1456268303
| 10>  C       -0.1956552889     0.0912377261    -2.4045265326
| 11>  N       -0.8381935273     0.4598258297    -3.2901206271
| 12>  C        2.0280180488    -0.1205633354    -1.4785715117
| 13>  N        3.1456670900     0.1613129092    -1.5483574984
| 14>  H        0.9608701819     1.9758346895     0.0567949396
| 15>  H       -0.7049216538     1.9022994745    -0.5728613940
| 16>  H       -0.4107554751     1.6824008799     1.1574588983
| 17>  H        0.5965220472    -0.3958034025     0.7331651817
| 18>  H       -0.7065285599    -2.2540312288    -1.2905675227
| 19> *
| 20>
| 21>                          ****END OF INPUT****

CARTESIAN COORDINATES (ANGSTROEM)
---------------------------------
  C     -0.014078    1.479215    0.160657
  N      0.048316    0.022403   -0.012650
  C      0.596537   -0.443912   -1.283476
  C      0.368439   -1.997132   -1.257427
  O      1.252966   -2.788261   -1.145627
  C     -0.195655    0.091238   -2.404527
  N     -0.838194    0.459826   -3.290121
  C      2.028018   -0.120563   -1.478572
  N      3.145667    0.161313   -1.548357
  H      0.960870    1.975835    0.056795
  H     -0.704922    1.902299   -0.572861
  H     -0.410755    1.682401    1.157459
  H      0.596522   -0.395803    0.733165
  H     -0.706529   -2.254031   -1.290568

 Total Charge           Charge          ....    0
 Multiplicity           Mult            ....    1
 Number of Electrons    NEL             ....   64
 Basis Dimension        Dim             ....  309

ORBITAL ENERGIES
----------------

  NO   OCC          E(Eh)            E(eV)
   0   2.0000     -20.616985      -561.0167
   1   2.0000     -15.621891      -425.0933
   2   2.0000     -15.619670      -425.0328
   3   2.0000     -15.609449      -424.7547
   4   2.0000     -11.400582      -310.2256
   5   2.0000     -11.392600      -310.0084
   6   2.0000     -11.317368      -307.9612
   7   2.0000     -11.306440      -307.6639
   8   2.0000     -11.287917      -307.1598
   9   2.0000      -1.460515       -39.7426
  10   2.0000      -1.305565       -35.5262
  11   2.0000      -1.255330       -34.1593
  12   2.0000      -1.244737       -33.8710
  13   2.0000      -1.091145       -29.6916
  14   2.0000      -0.946533       -25.7565
  15   2.0000      -0.893804       -24.3216
  16   2.0000      -0.825990       -22.4763
  17   2.0000      -0.736485       -20.0408
  18   2.0000      -0.728285       -19.8176
  19   2.0000      -0.701697       -19.0941
  20   2.0000      -0.654878       -17.8201
  21   2.0000      -0.619332       -16.8529
  22   2.0000      -0.603304       -16.4167
  23   2.0000      -0.591036       -16.0829
  24   2.0000      -0.580653       -15.8004
  25   2.0000      -0.572218       -15.5708
  26   2.0000      -0.525005       -14.2861
  27   2.0000      -0.520596       -14.1661
  28   2.0000      -0.507340       -13.8054
  29   2.0000      -0.497208       -13.5297
  30   2.0000      -0.466862       -12.7039
  31   2.0000      -0.449084       -12.2202
  32   0.0000       0.074901         2.0381
  33   0.0000       0.108775         2.9599
  34   0.0000       0.124737         3.3943
  35   0.0000       0.134975         3.6729
  36   0.0000       0.152039         4.1372

MULLIKEN ATOMIC CHARGES
-----------------------
   0 C :   -0.321712
   1 N :   -0.366236
   2 C :    0.491296
   3 C :    0.047282
   4 O :   -0.194167
   5 C :   -0.217974
   6 N :   -0.022904
   7 C :   -0.224149
   8 N :   -0.025953
   9 H :    0.148089
  10 H :    0.161664
  11 H :    0.154156
  12 H :    0.235208
  13 H :    0.135398
Sum of atomic charges:   -0.0000000

LOEWDIN ATOMIC CHARGES
----------------------
   0 C :   -0.318433
   1 N :    0.035182
   2 C :   -0.325128
   3 C :   -0.221609
   4 O :    0.199779
   5 C :   -0.133672
   6 N :    0.108346
   7 C :   -0.138471
   8 N :    0.102944
   9 H :    0.114404
  10 H :    0.128163
  11 H :    0.124982
  12 H :    0.187965
  13 H :    0.135547

  Mayer bond orders larger than 0.1
B(  0-C ,  1-N ) :   0.9026 B(  0-C ,  9-H ) :   0.9240 B(  0-C , 10-H ) :   0.9309
B(  0-C , 11-H ) :   0.9300 B(  1-N ,  2-C ) :   0.9497 B(  1-N , 12-H ) :   0.8705
B(  2-C ,  3-C ) :   0.7159 B(  2-C ,  5-C ) :   0.8642 B(  2-C ,  7-C ) :   0.8986
B(  3-C ,  4-O ) :   2.0365 B(  3-C , 13-H ) :   0.9385 B(  5-C ,  6-N ) :   2.8274
B(  7-C ,  8-N ) :   2.8214

MP2 TOTAL ENERGY:     -432.141933168 Eh
FINAL SINGLE POINT ENERGY      -432.141933168186

DIPOLE MOMENT
-------------
                                X             Y             Z
Electronic contribution:      2.67061      -4.27260      -4.93059
Nuclear contribution   :     -3.52347       4.40243       6.22667
                        -----------------------------------------
Total Dipole Moment    :     -0.85286       0.12983       1.29608
                        -----------------------------------------
Magnitude (a.u.)       :      1.55694
Magnitude (Debye)      :      3.95742

                             ****ORCA TERMINATED NORMALLY****
TOTAL RUN TIME: 0 days 0 hours 13 minutes 15 seconds 151 msec
