                         Program Version 3.0.3 - RELEASE   -
|  1> ! RI-MP2 RIJK def2-TZVP def2-TZVP/C def2-TZVP/JK TIGHTSCF
|  2> % maxcore 2000
|  3> % mp2 density relaxed end
|  4> *xyz 0 1
|  5>  C        0.0148981562     1.6163028411    -0.2328466812
|  6>  C       -0.0012697314     0.1379318443     0.1972760086
|  7>  C       -1.3404076231    -0.4439337486     0.1958424538
|  8>  C       -2.4590505849    -0.8928585049     0.1895054074
|  9>  C       -3.8001993596    -1.4682766262     0.1736806668
| 10>  C       -3.8239150546    -3.0161609798     0.0927820682
| 11>  C       -3.1369083790    -3.6393616799     1.3138749812
| 12>  C       -5.2736153704    -3.5012255374    -0.0843220607
| 13>  C       -5.4181248824    -5.0027124566    -0.3512738879
| 14>  H        1.0362371598     2.0087761957    -0.2161496291
| 15>  H       -0.3820461893     1.7305079740    -1.2452799239
| 16>  H       -0.5987149586     2.2225726738     0.4390903605
| 17>  H        0.6506593512    -0.4419990899    -0.4689927001
| 18>  H        0.4375193600     0.0456615049     1.1993918986
| 19>  H       -4.3481775340    -1.1520023278     1.0730445874
| 20>  H       -4.3595994678    -1.0589825728    -0.6780806710
| 21>  H       -3.2566310946    -3.3014076093    -0.8039819553
| 22>  H       -3.0575070256    -4.7261802125     1.2234495202
| 23>  H       -2.1273447940    -3.2376704511     1.4361724640
| 24>  H       -3.6991866513    -3.4197501405     2.2302101898
| 25>  H       -5.8518159881    -3.2308400801     0.8106236759
| 26>  H       -5.7288231186    -2.9487245054    -0.9167984030
| 27>  H       -4.8406489358    -5.3046159825    -1.2324620749
| 28>  H       -5.0719999556    -5.6042913454     0.4944165540
| 29>  H       -6.4643558084    -5.2669092032    -0.5347530194
| 30> *
| 31>
| 32>                          ****END OF INPUT****

CARTESIAN COORDINATES (ANGSTROEM)
---------------------------------
  C      0.014898    1.616303   -0.232847
  C     -0.001270    0.137932    0.197276
  C     -1.340408   -0.443934    0.195842
  C     -2.459051   -0.892859    0.189505
  C     -3.800199   -1.468277    0.173681
  C     -3.823915   -3.016161    0.092782
  C     -3.136908   -3.639362    1.313875
  C     -5.273615   -3.501226   -0.084322
  C     -5.418125   -5.002712   -0.351274
  H      1.036237    2.008776   -0.216150
  H     -0.382046    1.730508   -1.245280
  H     -0.598715    2.222573    0.439090
  H      0.650659   -0.441999   -0.468993
  H      0.437519    0.045662    1.199392
  H     -4.348178   -1.152002    1.073045
  H     -4.359599   -1.058983   -0.678081
  H     -3.256631   -3.301408   -0.803982
  H     -3.057507   -4.726180    1.223450
  H     -2.127345   -3.237670    1.436172
  H     -3.699187   -3.419750    2.230210
  H     -5.851816   -3.230840    0.810624
  H     -5.728823   -2.948725   -0.916798
  H     -4.840649   -5.304616   -1.232462
  H     -5.072000   -5.604291    0.494417
  H     -6.464356   -5.266909   -0.534753

 Total Charge           Charge          ....    0
 Multiplicity           Mult            ....    1
 Number of Electrons    NEL             ....   70
 Basis Dimension        Dim             ....  375

ORBITAL ENERGIES
----------------

  NO   OCC          E(Eh)            E(eV)
   0   2.0000     -11.244787      -305.9862
   1   2.0000     -11.239693      -305.8476
   2   2.0000     -11.228717      -305.5489
   3   2.0000     -11.219551      -305.2995
   4   2.0000     -11.219061      -305.2862
   5   2.0000     -11.212493      -305.1074
   6   2.0000     -11.212178      -305.0989
   7   2.0000     -11.208712      -305.0046
   8   2.0000     -11.206218      -304.9367
   9   2.0000      -1.103194       -30.0194
  10   2.0000      -1.067686       -29.0532
  11   2.0000      -1.017974       -27.7005
  12   2.0000      -0.973673       -26.4950
  13   2.0000      -0.931270       -25.3411
  14   2.0000      -0.870113       -23.6770
  15   2.0000      -0.848793       -23.0968
  16   2.0000      -0.766887       -20.8681
  17   2.0000      -0.662723       -18.0336
  18   2.0000      -0.638470       -17.3736
  19   2.0000      -0.618332       -16.8257
  20   2.0000      -0.616445       -16.7743
  21   2.0000      -0.612163       -16.6578
  22   2.0000      -0.581390       -15.8204
  23   2.0000      -0.553674       -15.0662
  24   2.0000      -0.543498       -14.7893
  25   2.0000      -0.531952       -14.4752
  26   2.0000      -0.518185       -14.1005
  27   2.0000      -0.513123       -13.9628
  28   2.0000      -0.506203       -13.7745
  29   2.0000      -0.497796       -13.5457
  30   2.0000      -0.469774       -12.7832
  31   2.0000      -0.460755       -12.5378
  32   2.0000      -0.455649       -12.3988
  33   2.0000      -0.357967        -9.7408
  34   2.0000      -0.357379        -9.7248
  35   0.0000       0.131027         3.5654
  36   0.0000       0.144763         3.9392
  37   0.0000       0.161828         4.4036
  38   0.0000       0.168727         4.5913
  39   0.0000       0.174343         4.7441

MULLIKEN ATOMIC CHARGES
-----------------------
   0 C :   -0.358645
   1 C :   -0.306615
   2 C :    0.046769
   3 C :    0.009628
   4 C :   -0.378460
   5 C :   -0.018900
   6 C :   -0.430752
   7 C :   -0.187100
   8 C :   -0.405283
   9 H :    0.129549
  10 H :    0.128244
  11 H :    0.128810
  12 H :    0.138356
  13 H :    0.137681
  14 H :    0.137317
  15 H :    0.139481
  16 H :    0.087988
  17 H :    0.132968
  18 H :    0.151321
  19 H :    0.116856
  20 H :    0.103863
  21 H :    0.108148
  22 H :    0.123861
  23 H :    0.129830
  24 H :    0.135088
Sum of atomic charges:   -0.0000000

LOEWDIN ATOMIC CHARGES
----------------------
   0 C :   -0.301011
   1 C :   -0.280595
   2 C :   -0.088211
   3 C :   -0.084307
   4 C :   -0.233364
   5 C :   -0.273103
   6 C :   -0.290385
   7 C :   -0.275592
   8 C :   -0.318935
   9 H :    0.119818
  10 H :    0.123512
  11 H :    0.123612
  12 H :    0.151440
  13 H :    0.151362
  14 H :    0.155906
  15 H :    0.155484
  16 H :    0.153837
  17 H :    0.121475
  18 H :    0.129605
  19 H :    0.123733
  20 H :    0.136754
  21 H :    0.136761
  22 H :    0.121395
  23 H :    0.119503
  24 H :    0.121307

  Mayer bond orders larger than 0.1
B(  0-C ,  1-C ) :   0.9441 B(  0-C ,  9-H ) :   0.9394 B(  0-C , 10-H ) :   0.9356
B(  0-C , 11-H ) :   0.9356 B(  1-C ,  2-C ) :   0.9430 B(  1-C , 12-H ) :   0.9408
B(  1-C , 13-H ) :   0.9411 B(  2-C ,  3-C ) :   2.6592 B(  2-C ,  4-C ) :  -0.1237
B(  3-C ,  4-C ) :   1.0525 B(  4-C ,  5-C ) :   0.9275 B(  4-C , 14-H ) :   0.9273
B(  4-C , 15-H ) :   0.9204 B(  5-C ,  6-C ) :   0.9115 B(  5-C ,  7-C ) :   0.9256
B(  5-C , 16-H ) :   0.9256 B(  6-C , 17-H ) :   0.9401 B(  6-C , 18-H ) :   0.9368
B(  6-C , 19-H ) :   0.9291 B(  7-C ,  8-C ) :   0.9174 B(  7-C , 20-H ) :   0.9230
B(  7-C , 21-H ) :   0.9348 B(  8-C , 22-H ) :   0.9380 B(  8-C , 23-H ) :   0.9428
B(  8-C , 24-H ) :   0.9419

MP2 TOTAL ENERGY:     -351.688226959 Eh
FINAL SINGLE POINT ENERGY      -351.688226958607

DIPOLE MOMENT
-------------
                                X             Y             Z
Electronic contribution:      2.30133       3.95125      -0.16421
Nuclear contribution   :     -2.28081      -3.97375       0.12489
                        -----------------------------------------
Total Dipole Moment    :      0.02052      -0.02251      -0.03932
                        -----------------------------------------
Magnitude (a.u.)       :      0.04974
Magnitude (Debye)      :      0.12642

                             ****ORCA TERMINATED NORMALLY****
TOTAL RUN TIME: 0 days 0 hours 18 minutes 14 seconds 788 msec
