                         Program Version 3.0.3 - RELEASE   -
|  1> ! RI-MP2 RIJK def2-TZVP def2-TZVP/C def2-TZVP/JK TIGHTSCF
|  2> % maxcore 2000
|  3> % mp2 density relaxed end
|  4> *xyz 0 1
|  5>  O       -0.0934619082     1.3635868816    -0.0824289405
|  6>  C        0.0144633135    -0.0265161917    -0.0266560494
|  7>  C       -0.4691998414    -0.7265156575     1.2363001458
|  8>  C       -1.3335085202    -0.7519241148    -0.0172221382
|  9>  O       -2.4348034284     0.1035828560    -0.0660686993
| 10>  C       -1.4814850677    -1.9903392847    -0.7375856081
| 11>  C       -1.6664423870    -3.0281237994    -1.3156565391
| 12>  C        1.1216932811    -0.5894107642    -0.7558146355
| 13>  C        2.0833897395    -1.0100593816    -1.3419603994
| 14>  H        0.7173058394     1.7289117937     0.2901085115
| 15>  H        0.0238174075    -1.6386030352     1.5498104418
| 16>  H       -0.8215771076    -0.0615307546     2.0167454523
| 17>  H       -3.1821272052    -0.3694727319     0.3177504444
| 18>  H       -1.8130736372    -3.9381649819    -1.8430211038
| 19>  H        2.9178265217    -1.3919393339    -1.8764432823
| 20> *
| 21>
| 22>                          ****END OF INPUT****

CARTESIAN COORDINATES (ANGSTROEM)
---------------------------------
  O     -0.093462    1.363587   -0.082429
  C      0.014463   -0.026516   -0.026656
  C     -0.469200   -0.726516    1.236300
  C     -1.333509   -0.751924   -0.017222
  O     -2.434803    0.103583   -0.066069
  C     -1.481485   -1.990339   -0.737586
  C     -1.666442   -3.028124   -1.315657
  C      1.121693   -0.589411   -0.755815
  C      2.083390   -1.010059   -1.341960
  H      0.717306    1.728912    0.290109
  H      0.023817   -1.638603    1.549810
  H     -0.821577   -0.061531    2.016745
  H     -3.182127   -0.369473    0.317750
  H     -1.813074   -3.938165   -1.843021
  H      2.917827   -1.391939   -1.876443

 Total Charge           Charge          ....    0
 Multiplicity           Mult            ....    1
 Number of Electrons    NEL             ....   64
 Basis Dimension        Dim             ....  315

ORBITAL ENERGIES
----------------

  NO   OCC          E(Eh)            E(eV)
   0   2.0000     -20.576598      -559.9177
   1   2.0000     -20.576593      -559.9176
   2   2.0000     -11.331235      -308.3386
   3   2.0000     -11.330615      -308.3217
   4   2.0000     -11.249590      -306.1169
   5   2.0000     -11.242197      -305.9157
   6   2.0000     -11.242191      -305.9156
   7   2.0000     -11.235244      -305.7265
   8   2.0000     -11.235239      -305.7264
   9   2.0000      -1.405705       -38.2512
  10   2.0000      -1.377136       -37.4738
  11   2.0000      -1.155096       -31.4318
  12   2.0000      -1.041269       -28.3344
  13   2.0000      -1.029081       -28.0027
  14   2.0000      -0.875348       -23.8194
  15   2.0000      -0.874494       -23.7962
  16   2.0000      -0.793907       -21.6033
  17   2.0000      -0.725520       -19.7424
  18   2.0000      -0.712150       -19.3786
  19   2.0000      -0.689141       -18.7525
  20   2.0000      -0.686442       -18.6790
  21   2.0000      -0.643949       -17.5227
  22   2.0000      -0.609375       -16.5819
  23   2.0000      -0.571587       -15.5537
  24   2.0000      -0.552801       -15.0425
  25   2.0000      -0.528413       -14.3788
  26   2.0000      -0.480205       -13.0671
  27   2.0000      -0.445902       -12.1336
  28   2.0000      -0.414332       -11.2746
  29   2.0000      -0.398443       -10.8422
  30   2.0000      -0.382763       -10.4155
  31   2.0000      -0.365072        -9.9341
  32   0.0000       0.129858         3.5336
  33   0.0000       0.144940         3.9440
  34   0.0000       0.156206         4.2506
  35   0.0000       0.161147         4.3850
  36   0.0000       0.161929         4.4063

MULLIKEN ATOMIC CHARGES
-----------------------
   0 O :   -0.435675
   1 C :    0.122418
   2 C :   -0.303178
   3 C :    0.122314
   4 O :   -0.435670
   5 C :   -0.063554
   6 C :   -0.138462
   7 C :   -0.063592
   8 C :   -0.138455
   9 H :    0.327025
  10 H :    0.141427
  11 H :    0.148786
  12 H :    0.327026
  13 H :    0.194792
  14 H :    0.194796
Sum of atomic charges:   -0.0000000

LOEWDIN ATOMIC CHARGES
----------------------
   0 O :    0.059148
   1 C :   -0.314205
   2 C :   -0.142055
   3 C :   -0.314211
   4 O :    0.059154
   5 C :   -0.066063
   6 C :   -0.071904
   7 C :   -0.066067
   8 C :   -0.071900
   9 H :    0.189316
  10 H :    0.144591
  11 H :    0.146936
  12 H :    0.189316
  13 H :    0.128971
  14 H :    0.128972

  Mayer bond orders larger than 0.1
B(  0-O ,  1-C ) :   0.9528 B(  0-O ,  9-H ) :   0.8334 B(  1-C ,  2-C ) :   0.8622
B(  1-C ,  3-C ) :   0.8170 B(  1-C ,  7-C ) :   1.2294 B(  2-C ,  3-C ) :   0.8622
B(  2-C , 10-H ) :   0.8977 B(  2-C , 11-H ) :   0.9188 B(  3-C ,  4-O ) :   0.9528
B(  3-C ,  5-C ) :   1.2294 B(  4-O , 12-H ) :   0.8334 B(  5-C ,  6-C ) :   2.5795
B(  6-C , 13-H ) :   0.8838 B(  7-C ,  8-C ) :   2.5795 B(  8-C , 14-H ) :   0.8838

MP2 TOTAL ENERGY:     -419.803800228 Eh
FINAL SINGLE POINT ENERGY      -419.803800227600

DIPOLE MOMENT
-------------
                                X             Y             Z
Electronic contribution:     -0.51374       0.93444      -1.54675
Nuclear contribution   :      0.87664      -1.60061       2.16003
                        -----------------------------------------
Total Dipole Moment    :      0.36291      -0.66617       0.61328
                        -----------------------------------------
Magnitude (a.u.)       :      0.97549
Magnitude (Debye)      :      2.47951

                             ****ORCA TERMINATED NORMALLY****
TOTAL RUN TIME: 0 days 0 hours 14 minutes 28 seconds 946 msec
