                         Program Version 3.0.3 - RELEASE   -
|  1> ! RI-MP2 RIJK def2-TZVP def2-TZVP/C def2-TZVP/JK TIGHTSCF
|  2> % maxcore 2000
|  3> % mp2 density relaxed end
|  4> *xyz 0 1
|  5>  C       -0.0977149343     1.5145766657     0.0515084997
|  6>  C       -0.0025812332    -0.0168838911    -0.0218272663
|  7>  C        0.7956128314    -0.5385184054    -1.2158608049
|  8>  C        0.4588633871    -0.1443609702    -2.6188133986
|  9>  C        1.7944365269    -1.3394652333    -0.8240767869
| 10>  C        1.8466247324    -1.4271250370     0.6611234094
| 11>  O        2.0791741684    -0.1466362684     1.3099370872
| 12>  C        0.7307557687    -0.6230810235     1.1863829538
| 13>  C       -0.0040775910    -0.8796460187     2.4731516220
| 14>  H        0.9026671868     1.9456761536     0.1429587904
| 15>  H       -0.5792982534     1.9297597655    -0.8387347665
| 16>  H       -0.6863750611     1.8266919085     0.9203857205
| 17>  H       -1.0232275346    -0.4271930628    -0.0640772722
| 18>  H        0.5961323537     0.9323762004    -2.7775529784
| 19>  H        1.0862064375    -0.6718406616    -3.3422824123
| 20>  H       -0.5915764647    -0.3620621865    -2.8515733048
| 21>  H        2.4982560651    -1.8358373332    -1.4820226819
| 22>  H        2.2693566522    -2.2819512010     1.1816734026
| 23>  H       -0.3803119468     0.0570552146     2.9004307579
| 24>  H       -0.8614994822    -1.5410057332     2.3089847940
| 25>  H        0.6604795911    -1.3412352323     3.2076930651
| 26> *
| 27>
| 28>                          ****END OF INPUT****

CARTESIAN COORDINATES (ANGSTROEM)
---------------------------------
  C     -0.097715    1.514577    0.051508
  C     -0.002581   -0.016884   -0.021827
  C      0.795613   -0.538518   -1.215861
  C      0.458863   -0.144361   -2.618813
  C      1.794437   -1.339465   -0.824077
  C      1.846625   -1.427125    0.661123
  O      2.079174   -0.146636    1.309937
  C      0.730756   -0.623081    1.186383
  C     -0.004078   -0.879646    2.473152
  H      0.902667    1.945676    0.142959
  H     -0.579298    1.929760   -0.838735
  H     -0.686375    1.826692    0.920386
  H     -1.023228   -0.427193   -0.064077
  H      0.596132    0.932376   -2.777553
  H      1.086206   -0.671841   -3.342282
  H     -0.591576   -0.362062   -2.851573
  H      2.498256   -1.835837   -1.482023
  H      2.269357   -2.281951    1.181673
  H     -0.380312    0.057055    2.900431
  H     -0.861499   -1.541006    2.308985
  H      0.660480   -1.341235    3.207693

 Total Charge           Charge          ....    0
 Multiplicity           Mult            ....    1
 Number of Electrons    NEL             ....   68
 Basis Dimension        Dim             ....  351

ORBITAL ENERGIES
----------------

  NO   OCC          E(Eh)            E(eV)
   0   2.0000     -20.551842      -559.2440
   1   2.0000     -11.280675      -306.9628
   2   2.0000     -11.276025      -306.8362
   3   2.0000     -11.239444      -305.8408
   4   2.0000     -11.237039      -305.7754
   5   2.0000     -11.226695      -305.4939
   6   2.0000     -11.222820      -305.3885
   7   2.0000     -11.218314      -305.2658
   8   2.0000     -11.215974      -305.2022
   9   2.0000      -1.396667       -38.0052
  10   2.0000      -1.122406       -30.5422
  11   2.0000      -1.028767       -27.9942
  12   2.0000      -0.991332       -26.9755
  13   2.0000      -0.972354       -26.4591
  14   2.0000      -0.875601       -23.8263
  15   2.0000      -0.858223       -23.3534
  16   2.0000      -0.756640       -20.5892
  17   2.0000      -0.722985       -19.6734
  18   2.0000      -0.680797       -18.5254
  19   2.0000      -0.616034       -16.7631
  20   2.0000      -0.610552       -16.6140
  21   2.0000      -0.590863       -16.0782
  22   2.0000      -0.579776       -15.7765
  23   2.0000      -0.572857       -15.5882
  24   2.0000      -0.566206       -15.4073
  25   2.0000      -0.540772       -14.7151
  26   2.0000      -0.528939       -14.3932
  27   2.0000      -0.515479       -14.0269
  28   2.0000      -0.513659       -13.9774
  29   2.0000      -0.487928       -13.2772
  30   2.0000      -0.474026       -12.8989
  31   2.0000      -0.436870       -11.8878
  32   2.0000      -0.405430       -11.0323
  33   2.0000      -0.338132        -9.2010
  34   0.0000       0.129827         3.5328
  35   0.0000       0.144920         3.9435
  36   0.0000       0.153709         4.1826
  37   0.0000       0.169725         4.6185
  38   0.0000       0.178296         4.8517

MULLIKEN ATOMIC CHARGES
-----------------------
   0 C :   -0.460374
   1 C :    0.048937
   2 C :    0.008584
   3 C :   -0.442396
   4 C :   -0.231506
   5 C :    0.056944
   6 O :   -0.344382
   7 C :    0.195757
   8 C :   -0.437879
   9 H :    0.154815
  10 H :    0.135335
  11 H :    0.129359
  12 H :    0.092605
  13 H :    0.148882
  14 H :    0.140276
  15 H :    0.138931
  16 H :    0.130447
  17 H :    0.120064
  18 H :    0.137057
  19 H :    0.134193
  20 H :    0.144352
Sum of atomic charges:    0.0000000

LOEWDIN ATOMIC CHARGES
----------------------
   0 C :   -0.280117
   1 C :   -0.186055
   2 C :   -0.144921
   3 C :   -0.271424
   4 C :   -0.124660
   5 C :   -0.217140
   6 O :    0.175672
   7 C :   -0.291726
   8 C :   -0.267228
   9 H :    0.132770
  10 H :    0.122533
  11 H :    0.124162
  12 H :    0.160810
  13 H :    0.133284
  14 H :    0.131691
  15 H :    0.131828
  16 H :    0.139154
  17 H :    0.136134
  18 H :    0.130549
  19 H :    0.130805
  20 H :    0.133878

  Mayer bond orders larger than 0.1
B(  0-C ,  1-C ) :   0.8400 B(  0-C ,  9-H ) :   0.9356 B(  0-C , 10-H ) :   0.9403
B(  0-C , 11-H ) :   0.9329 B(  1-C ,  2-C ) :   0.9443 B(  1-C ,  7-C ) :   0.9220
B(  1-C , 12-H ) :   0.9054 B(  2-C ,  3-C ) :   0.8828 B(  2-C ,  4-C ) :   1.7508
B(  3-C , 13-H ) :   0.9295 B(  3-C , 14-H ) :   0.9450 B(  3-C , 15-H ) :   0.9329
B(  4-C ,  5-C ) :   0.9099 B(  4-C , 16-H ) :   0.9181 B(  5-C ,  6-O ) :   0.8783
B(  5-C ,  7-C ) :   0.9502 B(  5-C , 17-H ) :   0.9323 B(  6-O ,  7-C ) :   0.8870
B(  7-C ,  8-C ) :   0.8720 B(  8-C , 18-H ) :   0.9372 B(  8-C , 19-H ) :   0.9372
B(  8-C , 20-H ) :   0.9436

MP2 TOTAL ENERGY:     -386.415849428 Eh
FINAL SINGLE POINT ENERGY      -386.415849428275

DIPOLE MOMENT
-------------
                                X             Y             Z
Electronic contribution:      5.08056      -2.82913       1.81158
Nuclear contribution   :     -5.71531       2.47906      -2.13452
                        -----------------------------------------
Total Dipole Moment    :     -0.63474      -0.35007      -0.32294
                        -----------------------------------------
Magnitude (a.u.)       :      0.79356
Magnitude (Debye)      :      2.01707

                             ****ORCA TERMINATED NORMALLY****
TOTAL RUN TIME: 0 days 0 hours 21 minutes 53 seconds 63 msec
