                         Program Version 3.0.3 - RELEASE   -
|  1> ! RI-MP2 RIJK def2-TZVP def2-TZVP/C def2-TZVP/JK TIGHTSCF
|  2> % maxcore 2000
|  3> % mp2 density relaxed end
|  4> *xyz 0 1
|  5>  C       -0.0314216572     1.5235193167    -0.2126658619
|  6>  C       -0.0015368442     0.0706964532     0.2788393951
|  7>  C       -1.3509222438    -0.6105552562     0.1386269718
|  8>  C       -1.8532724727    -1.2752703873    -1.1256942001
|  9>  C       -0.8360667745    -1.7267186513    -2.1576176364
| 10>  O        0.1693514165    -2.4488921147    -1.4484213188
| 11>  C       -0.4015070787    -3.0000012046    -0.2629991470
| 12>  C       -1.5698905417    -2.1061407142     0.1091955236
| 13>  H        0.9435813517     2.0045105334    -0.0861351903
| 14>  H       -0.2964511503     1.5762582761    -1.2739658082
| 15>  H       -0.7693470982     2.1162091495     0.3400305476
| 16>  H        0.7630432386    -0.4893989608    -0.2653337573
| 17>  H        0.2927568913     0.0532822954     1.3366474687
| 18>  H       -2.1413072140    -0.0836900387     0.6718708323
| 19>  H       -2.8658035158    -1.0857278335    -1.4636967080
| 20>  H       -1.3286667525    -2.3663045613    -2.9079612190
| 21>  H       -0.3299481713    -0.9119456022    -2.6876021131
| 22>  H       -0.7615605632    -4.0270177408    -0.4367290471
| 23>  H        0.3963919176    -3.0424765340     0.4868804473
| 24>  H       -2.3694924975    -2.5391777148     0.6997451608
| 25> *
| 26>
| 27>                          ****END OF INPUT****

CARTESIAN COORDINATES (ANGSTROEM)
---------------------------------
  C     -0.031422    1.523519   -0.212666
  C     -0.001537    0.070696    0.278839
  C     -1.350922   -0.610555    0.138627
  C     -1.853272   -1.275270   -1.125694
  C     -0.836067   -1.726719   -2.157618
  O      0.169351   -2.448892   -1.448421
  C     -0.401507   -3.000001   -0.262999
  C     -1.569891   -2.106141    0.109196
  H      0.943581    2.004511   -0.086135
  H     -0.296451    1.576258   -1.273966
  H     -0.769347    2.116209    0.340031
  H      0.763043   -0.489399   -0.265334
  H      0.292757    0.053282    1.336647
  H     -2.141307   -0.083690    0.671871
  H     -2.865804   -1.085728   -1.463697
  H     -1.328667   -2.366305   -2.907961
  H     -0.329948   -0.911946   -2.687602
  H     -0.761561   -4.027018   -0.436729
  H      0.396392   -3.042477    0.486880
  H     -2.369492   -2.539178    0.699745

 Total Charge           Charge          ....    0
 Multiplicity           Mult            ....    1
 Number of Electrons    NEL             ....   62
 Basis Dimension        Dim             ....  320

ORBITAL ENERGIES
----------------

  NO   OCC          E(Eh)            E(eV)
   0   2.0000     -20.548120      -559.1428
   1   2.0000     -11.273134      -306.7576
   2   2.0000     -11.272825      -306.7492
   3   2.0000     -11.231203      -305.6166
   4   2.0000     -11.229840      -305.5795
   5   2.0000     -11.229355      -305.5663
   6   2.0000     -11.215679      -305.1941
   7   2.0000     -11.210028      -305.0404
   8   2.0000      -1.373434       -37.3730
   9   2.0000      -1.150174       -31.2978
  10   2.0000      -1.024244       -27.8711
  11   2.0000      -0.989382       -26.9225
  12   2.0000      -0.897036       -24.4096
  13   2.0000      -0.841501       -22.8984
  14   2.0000      -0.781922       -21.2772
  15   2.0000      -0.741176       -20.1684
  16   2.0000      -0.699122       -19.0241
  17   2.0000      -0.663181       -18.0461
  18   2.0000      -0.612984       -16.6801
  19   2.0000      -0.609868       -16.5954
  20   2.0000      -0.589863       -16.0510
  21   2.0000      -0.557747       -15.1771
  22   2.0000      -0.554182       -15.0801
  23   2.0000      -0.520546       -14.1648
  24   2.0000      -0.508416       -13.8347
  25   2.0000      -0.500182       -13.6107
  26   2.0000      -0.487330       -13.2609
  27   2.0000      -0.464350       -12.6356
  28   2.0000      -0.423727       -11.5302
  29   2.0000      -0.397823       -10.8253
  30   2.0000      -0.387088       -10.5332
  31   0.0000       0.135460         3.6861
  32   0.0000       0.158045         4.3006
  33   0.0000       0.169061         4.6004
  34   0.0000       0.172842         4.7033
  35   0.0000       0.193395         5.2625

MULLIKEN ATOMIC CHARGES
-----------------------
   0 C :   -0.400004
   1 C :   -0.219196
   2 C :   -0.106823
   3 C :   -0.154410
   4 C :   -0.041248
   5 O :   -0.336270
   6 C :   -0.042035
   7 C :   -0.132640
   8 H :    0.133653
   9 H :    0.123900
  10 H :    0.118622
  11 H :    0.145566
  12 H :    0.108941
  13 H :    0.113496
  14 H :    0.131086
  15 H :    0.100688
  16 H :    0.111032
  17 H :    0.100414
  18 H :    0.114370
  19 H :    0.130857
Sum of atomic charges:   -0.0000000

LOEWDIN ATOMIC CHARGES
----------------------
   0 C :   -0.315262
   1 C :   -0.271408
   2 C :   -0.189233
   3 C :   -0.192913
   4 C :   -0.286675
   5 O :    0.142345
   6 C :   -0.287409
   7 C :   -0.192681
   8 H :    0.120376
   9 H :    0.119964
  10 H :    0.119098
  11 H :    0.147106
  12 H :    0.138339
  13 H :    0.154695
  14 H :    0.144407
  15 H :    0.124039
  16 H :    0.127912
  17 H :    0.123974
  18 H :    0.128666
  19 H :    0.144659

  Mayer bond orders larger than 0.1
B(  0-C ,  1-C ) :   0.9151 B(  0-C ,  8-H ) :   0.9413 B(  0-C ,  9-H ) :   0.9412
B(  0-C , 10-H ) :   0.9388 B(  1-C ,  2-C ) :   0.9016 B(  1-C , 11-H ) :   0.9265
B(  1-C , 12-H ) :   0.9312 B(  2-C ,  3-C ) :   0.8886 B(  2-C ,  7-C ) :   0.8755
B(  2-C , 13-H ) :   0.9270 B(  3-C ,  4-C ) :   0.9668 B(  3-C ,  7-C ) :   0.8492
B(  3-C , 14-H ) :   0.9168 B(  4-C ,  5-O ) :   0.9165 B(  4-C , 15-H ) :   0.9228
B(  4-C , 16-H ) :   0.9270 B(  5-O ,  6-C ) :   0.9123 B(  6-C ,  7-C ) :   0.9698
B(  6-C , 17-H ) :   0.9239 B(  6-C , 18-H ) :   0.9270 B(  7-C , 19-H ) :   0.9169

MP2 TOTAL ENERGY:     -348.392153014 Eh
FINAL SINGLE POINT ENERGY      -348.392153014029

DIPOLE MOMENT
-------------
                                X             Y             Z
Electronic contribution:     -0.51376      -5.05584      -1.31997
Nuclear contribution   :     -0.05920       5.14020       1.53403
                        -----------------------------------------
Total Dipole Moment    :     -0.57296       0.08436       0.21407
                        -----------------------------------------
Magnitude (a.u.)       :      0.61743
Magnitude (Debye)      :      1.56939

                             ****ORCA TERMINATED NORMALLY****
TOTAL RUN TIME: 0 days 0 hours 14 minutes 9 seconds 770 msec
