                         Program Version 3.0.3 - RELEASE   -
|  1> ! RI-MP2 RIJK def2-TZVP def2-TZVP/C def2-TZVP/JK TIGHTSCF
|  2> % maxcore 2000
|  3> % mp2 density relaxed end
|  4> *xyz 0 1
|  5>  O        0.3016243246    -0.1103224294    -0.1659267854
|  6>  C        0.1397080398     1.0704764465    -0.0048228201
|  7>  C        1.2554154860     2.0968794055     0.1050471912
|  8>  O        2.5163349573     1.5047309614     0.3432107140
|  9>  C        3.2220427943     1.4137288724    -0.8915400022
| 10>  C        2.8606720779     2.6900932959    -1.6668555909
| 11>  C        2.3536445360     2.4930380852    -3.1194746007
| 12>  C        0.9007248769     2.3886728018    -2.5769544307
| 13>  C        1.3972196792     2.9371811755    -1.1985295866
| 14>  H       -0.8824531693     1.5163466426     0.0574576073
| 15>  H        1.0193530370     2.7423035137     0.9627622120
| 16>  H        4.2854095470     1.3289129536    -0.6544032181
| 17>  H        2.9150233152     0.5127224551    -1.4422229706
| 18>  H        3.5842989090     3.4879337958    -1.4890539723
| 19>  H        2.5042001773     3.3836812200    -3.7340017170
| 20>  H        2.7467514003     1.6294046790    -3.6622652721
| 21>  H        0.1465939291     2.9923310011    -3.0857258007
| 22>  H        0.5383698520     1.3592724504    -2.5282305496
| 23>  H        1.1304938505     3.9822465539    -1.0396275272
| 24> *
| 25>
| 26>                          ****END OF INPUT****

CARTESIAN COORDINATES (ANGSTROEM)
---------------------------------
  O      0.301624   -0.110322   -0.165927
  C      0.139708    1.070476   -0.004823
  C      1.255415    2.096879    0.105047
  O      2.516335    1.504731    0.343211
  C      3.222043    1.413729   -0.891540
  C      2.860672    2.690093   -1.666856
  C      2.353645    2.493038   -3.119475
  C      0.900725    2.388673   -2.576954
  C      1.397220    2.937181   -1.198530
  H     -0.882453    1.516347    0.057458
  H      1.019353    2.742304    0.962762
  H      4.285410    1.328913   -0.654403
  H      2.915023    0.512722   -1.442223
  H      3.584299    3.487934   -1.489054
  H      2.504200    3.383681   -3.734002
  H      2.746751    1.629405   -3.662265
  H      0.146594    2.992331   -3.085726
  H      0.538370    1.359272   -2.528231
  H      1.130494    3.982247   -1.039628

 Total Charge           Charge          ....    0
 Multiplicity           Mult            ....    1
 Number of Electrons    NEL             ....   68
 Basis Dimension        Dim             ....  339

ORBITAL ENERGIES
----------------

  NO   OCC          E(Eh)            E(eV)
   0   2.0000     -20.558363      -559.4215
   1   2.0000     -20.557113      -559.3875
   2   2.0000     -11.330262      -308.3121
   3   2.0000     -11.295224      -307.3587
   4   2.0000     -11.275458      -306.8208
   5   2.0000     -11.247580      -306.0622
   6   2.0000     -11.237514      -305.7883
   7   2.0000     -11.235482      -305.7330
   8   2.0000     -11.232927      -305.6635
   9   2.0000      -1.404418       -38.2162
  10   2.0000      -1.377731       -37.4900
  11   2.0000      -1.145312       -31.1655
  12   2.0000      -1.029394       -28.0112
  13   2.0000      -0.953253       -25.9393
  14   2.0000      -0.891112       -24.2484
  15   2.0000      -0.867285       -23.6000
  16   2.0000      -0.768604       -20.9148
  17   2.0000      -0.747603       -20.3433
  18   2.0000      -0.713723       -19.4214
  19   2.0000      -0.684359       -18.6223
  20   2.0000      -0.655463       -17.8360
  21   2.0000      -0.640541       -17.4300
  22   2.0000      -0.614405       -16.7188
  23   2.0000      -0.603590       -16.4245
  24   2.0000      -0.564749       -15.3676
  25   2.0000      -0.552721       -15.0403
  26   2.0000      -0.521812       -14.1992
  27   2.0000      -0.505016       -13.7422
  28   2.0000      -0.486479       -13.2378
  29   2.0000      -0.477983       -13.0066
  30   2.0000      -0.451021       -12.2729
  31   2.0000      -0.444105       -12.0847
  32   2.0000      -0.433969       -11.8089
  33   2.0000      -0.401633       -10.9290
  34   0.0000       0.126034         3.4296
  35   0.0000       0.133163         3.6235
  36   0.0000       0.151120         4.1122
  37   0.0000       0.158091         4.3019
  38   0.0000       0.175662         4.7800

MULLIKEN ATOMIC CHARGES
-----------------------
   0 O :   -0.255415
   1 C :    0.049090
   2 C :    0.094314
   3 O :   -0.306156
   4 C :   -0.047613
   5 C :   -0.111851
   6 C :   -0.239682
   7 C :   -0.292411
   8 C :   -0.047958
   9 H :    0.071612
  10 H :    0.119847
  11 H :    0.121648
  12 H :    0.096714
  13 H :    0.115050
  14 H :    0.121096
  15 H :    0.122708
  16 H :    0.126300
  17 H :    0.138808
  18 H :    0.123897
Sum of atomic charges:   -0.0000000

LOEWDIN ATOMIC CHARGES
----------------------
   0 O :    0.143269
   1 C :   -0.283481
   2 C :   -0.307279
   3 O :    0.188768
   4 C :   -0.272395
   5 C :   -0.200327
   6 C :   -0.221684
   7 C :   -0.215134
   8 C :   -0.167970
   9 H :    0.111588
  10 H :    0.151999
  11 H :    0.128794
  12 H :    0.127591
  13 H :    0.140048
  14 H :    0.134588
  15 H :    0.127578
  16 H :    0.127545
  17 H :    0.139111
  18 H :    0.147391

  Mayer bond orders larger than 0.1
B(  0-O ,  1-C ) :   2.0167 B(  1-C ,  2-C ) :   0.8218 B(  1-C ,  9-H ) :   0.9368
B(  2-C ,  3-O ) :   0.9581 B(  2-C ,  8-C ) :   0.9197 B(  2-C , 10-H ) :   0.9102
B(  3-O ,  4-C ) :   0.9178 B(  4-C ,  5-C ) :   0.9672 B(  4-C , 11-H ) :   0.9277
B(  4-C , 12-H ) :   0.9008 B(  5-C ,  6-C ) :   0.9189 B(  5-C ,  8-C ) :   0.9202
B(  5-C , 13-H ) :   0.9164 B(  6-C ,  7-C ) :   0.9509 B(  6-C , 14-H ) :   0.9247
B(  6-C , 15-H ) :   0.9242 B(  7-C ,  8-C ) :   0.9241 B(  7-C , 16-H ) :   0.9296
B(  7-C , 17-H ) :   0.9096 B(  8-C , 18-H ) :   0.9079

MP2 TOTAL ENERGY:     -422.312067285 Eh
FINAL SINGLE POINT ENERGY      -422.312067284991

DIPOLE MOMENT
-------------
                                X             Y             Z
Electronic contribution:     -1.36328      -3.40887       5.56969
Nuclear contribution   :      1.33317       4.62760      -6.16687
                        -----------------------------------------
Total Dipole Moment    :     -0.03011       1.21873      -0.59718
                        -----------------------------------------
Magnitude (a.u.)       :      1.35751
Magnitude (Debye)      :      3.45051

                             ****ORCA TERMINATED NORMALLY****
TOTAL RUN TIME: 0 days 0 hours 18 minutes 50 seconds 256 msec
