                         Program Version 3.0.3 - RELEASE   -
|  1> ! RI-MP2 RIJK def2-TZVP def2-TZVP/C def2-TZVP/JK TIGHTSCF
|  2> % maxcore 2000
|  3> % mp2 density relaxed end
|  4> *xyz 0 1
|  5>  C       -0.0564211844     1.4883419288    -0.5030434150
|  6>  C       -0.0558419187    -0.0439116613    -0.4722019258
|  7>  C       -1.3296679330    -0.6197903643     0.1512453201
|  8>  C       -2.6052764173    -0.5412674475    -0.7413430729
|  9>  C       -2.5472490824    -2.0798685960    -0.9789935337
| 10>  C       -2.1049449923    -2.4811593696    -2.3850429635
| 11>  C       -1.4866726843    -2.1787065100     0.1747341295
| 12>  C       -0.2644864590    -3.0843877095     0.0449820333
| 13>  C       -0.6040362110    -4.5731306933     0.1879980615
| 14>  H        0.8590489137     1.8785556266    -0.9588915594
| 15>  H       -0.9045242932     1.8768662416    -1.0771727272
| 16>  H       -0.1279486387     1.9015110528     0.5094341819
| 17>  H        0.0747988664    -0.4263223524    -1.4920809007
| 18>  H        0.8164063251    -0.3917143061     0.0957092444
| 19>  H       -1.4551592710    -0.1648415306     1.1407378869
| 20>  H       -3.4962480636    -0.2205341526    -0.1952445624
| 21>  H       -2.5202436142     0.0759353369    -1.6419934623
| 22>  H       -3.4830845921    -2.5993847573    -0.7496366730
| 23>  H       -1.1782347858    -1.9822842049    -2.6868240515
| 24>  H       -1.9433697566    -3.5608567431    -2.4729603345
| 25>  H       -2.8743569846    -2.2025817179    -3.1141930378
| 26>  H       -2.0097306779    -2.4558123833     1.0984922921
| 27>  H        0.2415930343    -2.9141935789    -0.9124579669
| 28>  H        0.4625373029    -2.8094872055     0.8208803736
| 29>  H       -1.0528161324    -4.7816561146     1.1658365755
| 30>  H       -1.3187019212    -4.8976782061    -0.5754238377
| 31>  H        0.2901210314    -5.1973012517     0.0921217756
| 32> *
| 33>
| 34>                          ****END OF INPUT****

CARTESIAN COORDINATES (ANGSTROEM)
---------------------------------
  C     -0.056421    1.488342   -0.503043
  C     -0.055842   -0.043912   -0.472202
  C     -1.329668   -0.619790    0.151245
  C     -2.605276   -0.541267   -0.741343
  C     -2.547249   -2.079869   -0.978994
  C     -2.104945   -2.481159   -2.385043
  C     -1.486673   -2.178707    0.174734
  C     -0.264486   -3.084388    0.044982
  C     -0.604036   -4.573131    0.187998
  H      0.859049    1.878556   -0.958892
  H     -0.904524    1.876866   -1.077173
  H     -0.127949    1.901511    0.509434
  H      0.074799   -0.426322   -1.492081
  H      0.816406   -0.391714    0.095709
  H     -1.455159   -0.164842    1.140738
  H     -3.496248   -0.220534   -0.195245
  H     -2.520244    0.075935   -1.641993
  H     -3.483085   -2.599385   -0.749637
  H     -1.178235   -1.982284   -2.686824
  H     -1.943370   -3.560857   -2.472960
  H     -2.874357   -2.202582   -3.114193
  H     -2.009731   -2.455812    1.098492
  H      0.241593   -2.914194   -0.912458
  H      0.462537   -2.809487    0.820880
  H     -1.052816   -4.781656    1.165837
  H     -1.318702   -4.897678   -0.575424
  H      0.290121   -5.197301    0.092122

 Total Charge           Charge          ....    0
 Multiplicity           Mult            ....    1
 Number of Electrons    NEL             ....   72
 Basis Dimension        Dim             ....  387

ORBITAL ENERGIES
----------------

  NO   OCC          E(Eh)            E(eV)
   0   2.0000     -11.218147      -305.2613
   1   2.0000     -11.215907      -305.2003
   2   2.0000     -11.215136      -305.1794
   3   2.0000     -11.213971      -305.1477
   4   2.0000     -11.213113      -305.1243
   5   2.0000     -11.209206      -305.0180
   6   2.0000     -11.209074      -305.0144
   7   2.0000     -11.208983      -305.0119
   8   2.0000     -11.208739      -305.0053
   9   2.0000      -1.134366       -30.8677
  10   2.0000      -1.035058       -28.1654
  11   2.0000      -1.021292       -27.7908
  12   2.0000      -0.962285       -26.1851
  13   2.0000      -0.896637       -24.3987
  14   2.0000      -0.868983       -23.6462
  15   2.0000      -0.810908       -22.0659
  16   2.0000      -0.788150       -21.4466
  17   2.0000      -0.698239       -19.0000
  18   2.0000      -0.667772       -18.1710
  19   2.0000      -0.616996       -16.7893
  20   2.0000      -0.609902       -16.5963
  21   2.0000      -0.594709       -16.1829
  22   2.0000      -0.560078       -15.2405
  23   2.0000      -0.553278       -15.0554
  24   2.0000      -0.548940       -14.9374
  25   2.0000      -0.540581       -14.7100
  26   2.0000      -0.530857       -14.4454
  27   2.0000      -0.503060       -13.6889
  28   2.0000      -0.497129       -13.5276
  29   2.0000      -0.490920       -13.3586
  30   2.0000      -0.481297       -13.0967
  31   2.0000      -0.477147       -12.9838
  32   2.0000      -0.437874       -11.9152
  33   2.0000      -0.426475       -11.6050
  34   2.0000      -0.403025       -10.9669
  35   2.0000      -0.401214       -10.9176
  36   0.0000       0.133639         3.6365
  37   0.0000       0.149412         4.0657
  38   0.0000       0.154770         4.2115
  39   0.0000       0.163105         4.4383
  40   0.0000       0.180515         4.9121

MULLIKEN ATOMIC CHARGES
-----------------------
   0 C :   -0.389515
   1 C :   -0.253102
   2 C :   -0.052428
   3 C :   -0.233324
   4 C :   -0.057537
   5 C :   -0.454854
   6 C :   -0.039340
   7 C :   -0.208465
   8 C :   -0.393740
   9 H :    0.132813
  10 H :    0.125362
  11 H :    0.122091
  12 H :    0.106744
  13 H :    0.111380
  14 H :    0.088830
  15 H :    0.118264
  16 H :    0.103907
  17 H :    0.096032
  18 H :    0.126957
  19 H :    0.127647
  20 H :    0.134988
  21 H :    0.087992
  22 H :    0.109102
  23 H :    0.112187
  24 H :    0.122727
  25 H :    0.122015
  26 H :    0.133269
Sum of atomic charges:   -0.0000000

LOEWDIN ATOMIC CHARGES
----------------------
   0 C :   -0.316931
   1 C :   -0.277809
   2 C :   -0.208635
   3 C :   -0.199180
   4 C :   -0.230115
   5 C :   -0.300420
   6 C :   -0.194319
   7 C :   -0.279163
   8 C :   -0.316387
   9 H :    0.119764
  10 H :    0.120150
  11 H :    0.120465
  12 H :    0.134377
  13 H :    0.137005
  14 H :    0.141067
  15 H :    0.130568
  16 H :    0.128933
  17 H :    0.138823
  18 H :    0.119973
  19 H :    0.120810
  20 H :    0.125158
  21 H :    0.152025
  22 H :    0.136613
  23 H :    0.138183
  24 H :    0.120213
  25 H :    0.118794
  26 H :    0.120037

  Mayer bond orders larger than 0.1
B(  0-C ,  1-C ) :   0.9190 B(  0-C ,  9-H ) :   0.9432 B(  0-C , 10-H ) :   0.9412
B(  0-C , 11-H ) :   0.9392 B(  1-C ,  2-C ) :   0.9172 B(  1-C , 12-H ) :   0.9311
B(  1-C , 13-H ) :   0.9361 B(  2-C ,  3-C ) :   0.9163 B(  2-C ,  6-C ) :   0.9161
B(  2-C , 14-H ) :   0.9181 B(  3-C ,  4-C ) :   0.9182 B(  3-C , 15-H ) :   0.9172
B(  3-C , 16-H ) :   0.9211 B(  4-C ,  5-C ) :   0.8945 B(  4-C ,  6-C ) :   0.9161
B(  4-C , 17-H ) :   0.9210 B(  5-C , 18-H ) :   0.9391 B(  5-C , 19-H ) :   0.9409
B(  5-C , 20-H ) :   0.9380 B(  6-C ,  7-C ) :   0.8976 B(  6-C , 21-H ) :   0.9238
B(  7-C ,  8-C ) :   0.9163 B(  7-C , 22-H ) :   0.9279 B(  7-C , 23-H ) :   0.9414
B(  8-C , 24-H ) :   0.9410 B(  8-C , 25-H ) :   0.9402 B(  8-C , 26-H ) :   0.9430

MP2 TOTAL ENERGY:     -352.909016602 Eh
FINAL SINGLE POINT ENERGY      -352.909016602055

DIPOLE MOMENT
-------------
                                X             Y             Z
Electronic contribution:     -1.98337       0.49208       1.57522
Nuclear contribution   :      1.99974      -0.51737      -1.53465
                        -----------------------------------------
Total Dipole Moment    :      0.01637      -0.02528       0.04058
                        -----------------------------------------
Magnitude (a.u.)       :      0.05053
Magnitude (Debye)      :      0.12845

                             ****ORCA TERMINATED NORMALLY****
TOTAL RUN TIME: 0 days 0 hours 35 minutes 35 seconds 443 msec
