                         Program Version 3.0.3 - RELEASE   -
|  1> ! RI-MP2 RIJK def2-TZVP def2-TZVP/C def2-TZVP/JK TIGHTSCF
|  2> % maxcore 2000
|  3> % mp2 density relaxed end
|  4> *xyz 0 1
|  5>  C        0.1965471208     1.4841284960    -0.0607353836
|  6>  C       -0.0462330312    -0.0212827154     0.0774783474
|  7>  O        0.6190454239    -0.5179740018     1.2394784368
|  8>  C       -1.5400331543    -0.4792639881     0.0331261339
|  9>  C       -2.2911694442     0.0117929559     1.2858273921
| 10>  C       -2.2129690339     0.0894293269    -1.2310406978
| 11>  C       -1.5181541643    -2.0281097506    -0.0259000105
| 12>  C       -2.8540579657    -2.7464887970     0.1380767928
| 13>  O       -2.6095210870    -4.1291359378    -0.0923182885
| 14>  H        1.2694703786     1.6784803597     0.0212593648
| 15>  H       -0.1463171363     1.8711009666    -1.0232777867
| 16>  H       -0.3082446732     2.0534524231     0.7287423232
| 17>  H        0.4620119196    -0.5239769779    -0.7555292586
| 18>  H        0.3451821963     0.0233631451     1.9871466804
| 19>  H       -2.2382841746     1.1009018912     1.3870458779
| 20>  H       -3.3524876770    -0.2488915785     1.2368685076
| 21>  H       -1.8867210338    -0.4382927651     2.1986895281
| 22>  H       -1.6276628610    -0.1430066799    -2.1281580688
| 23>  H       -3.2115525085    -0.3345325883    -1.3721603507
| 24>  H       -2.3298940629     1.1757523859    -1.1764704202
| 25>  H       -1.0980694628    -2.3395071228    -0.9909174084
| 26>  H       -0.8353813784    -2.3979850073     0.7443358495
| 27>  H       -3.2563155938    -2.5859666956     1.1497885875
| 28>  H       -3.6008879865    -2.3610282572    -0.5743221019
| 29>  H       -3.4331525300    -4.6050950472     0.0477361634
| 30> *
| 31>
| 32>                          ****END OF INPUT****

CARTESIAN COORDINATES (ANGSTROEM)
---------------------------------
  C      0.196547    1.484128   -0.060735
  C     -0.046233   -0.021283    0.077478
  O      0.619045   -0.517974    1.239478
  C     -1.540033   -0.479264    0.033126
  C     -2.291169    0.011793    1.285827
  C     -2.212969    0.089429   -1.231041
  C     -1.518154   -2.028110   -0.025900
  C     -2.854058   -2.746489    0.138077
  O     -2.609521   -4.129136   -0.092318
  H      1.269470    1.678480    0.021259
  H     -0.146317    1.871101   -1.023278
  H     -0.308245    2.053452    0.728742
  H      0.462012   -0.523977   -0.755529
  H      0.345182    0.023363    1.987147
  H     -2.238284    1.100902    1.387046
  H     -3.352488   -0.248892    1.236869
  H     -1.886721   -0.438293    2.198690
  H     -1.627663   -0.143007   -2.128158
  H     -3.211553   -0.334533   -1.372160
  H     -2.329894    1.175752   -1.176470
  H     -1.098069   -2.339507   -0.990917
  H     -0.835381   -2.397985    0.744336
  H     -3.256316   -2.585967    1.149789
  H     -3.600888   -2.361028   -0.574322
  H     -3.433153   -4.605095    0.047736

 Total Charge           Charge          ....    0
 Multiplicity           Mult            ....    1
 Number of Electrons    NEL             ....   74
 Basis Dimension        Dim             ....  375

ORBITAL ENERGIES
----------------

  NO   OCC          E(Eh)            E(eV)
   0   2.0000     -20.549790      -559.1882
   1   2.0000     -20.549152      -559.1709
   2   2.0000     -11.276638      -306.8529
   3   2.0000     -11.269751      -306.6655
   4   2.0000     -11.237346      -305.7837
   5   2.0000     -11.217709      -305.2494
   6   2.0000     -11.217191      -305.2353
   7   2.0000     -11.215487      -305.1889
   8   2.0000     -11.207481      -304.9711
   9   2.0000      -1.356632       -36.9158
  10   2.0000      -1.353031       -36.8178
  11   2.0000      -1.105410       -30.0797
  12   2.0000      -1.005144       -27.3513
  13   2.0000      -0.970304       -26.4033
  14   2.0000      -0.936199       -25.4753
  15   2.0000      -0.883531       -24.0421
  16   2.0000      -0.817911       -22.2565
  17   2.0000      -0.742802       -20.2127
  18   2.0000      -0.697066       -18.9681
  19   2.0000      -0.652774       -17.7629
  20   2.0000      -0.648122       -17.6363
  21   2.0000      -0.632398       -17.2084
  22   2.0000      -0.622232       -16.9318
  23   2.0000      -0.598868       -16.2960
  24   2.0000      -0.576479       -15.6868
  25   2.0000      -0.559523       -15.2254
  26   2.0000      -0.544618       -14.8198
  27   2.0000      -0.537006       -14.6127
  28   2.0000      -0.525960       -14.3121
  29   2.0000      -0.521949       -14.2030
  30   2.0000      -0.508831       -13.8460
  31   2.0000      -0.484055       -13.1718
  32   2.0000      -0.477598       -12.9961
  33   2.0000      -0.463300       -12.6070
  34   2.0000      -0.446107       -12.1392
  35   2.0000      -0.434463       -11.8223
  36   2.0000      -0.416493       -11.3334
  37   0.0000       0.125817         3.4237
  38   0.0000       0.142547         3.8789
  39   0.0000       0.158109         4.3024
  40   0.0000       0.172240         4.6869
  41   0.0000       0.177543         4.8312

MULLIKEN ATOMIC CHARGES
-----------------------
   0 C :   -0.431177
   1 C :    0.106241
   2 O :   -0.471305
   3 C :    0.127882
   4 C :   -0.529918
   5 C :   -0.461195
   6 C :   -0.183569
   7 C :   -0.105290
   8 O :   -0.461112
   9 H :    0.153688
  10 H :    0.138590
  11 H :    0.119725
  12 H :    0.097183
  13 H :    0.311788
  14 H :    0.138422
  15 H :    0.141579
  16 H :    0.141809
  17 H :    0.138114
  18 H :    0.132962
  19 H :    0.138309
  20 H :    0.112284
  21 H :    0.142838
  22 H :    0.102806
  23 H :    0.087325
  24 H :    0.312020
Sum of atomic charges:    0.0000000

LOEWDIN ATOMIC CHARGES
----------------------
   0 C :   -0.304345
   1 C :   -0.328256
   2 O :   -0.016425
   3 C :   -0.310514
   4 C :   -0.279601
   5 C :   -0.269829
   6 C :   -0.230031
   7 C :   -0.350283
   8 O :   -0.051205
   9 H :    0.128657
  10 H :    0.126719
  11 H :    0.119830
  12 H :    0.149976
  13 H :    0.171224
  14 H :    0.123247
  15 H :    0.127786
  16 H :    0.125389
  17 H :    0.128428
  18 H :    0.123344
  19 H :    0.124351
  20 H :    0.145947
  21 H :    0.150814
  22 H :    0.114051
  23 H :    0.110812
  24 H :    0.169913

  Mayer bond orders larger than 0.1
B(  0-C ,  1-C ) :   0.9248 B(  0-C ,  9-H ) :   0.9441 B(  0-C , 10-H ) :   0.9354
B(  0-C , 11-H ) :   0.9232 B(  1-C ,  2-O ) :   0.9091 B(  1-C ,  3-C ) :   0.8740
B(  1-C , 12-H ) :   0.9213 B(  2-O , 13-H ) :   0.8452 B(  3-C ,  4-C ) :   0.8576
B(  3-C ,  5-C ) :   0.8961 B(  3-C ,  6-C ) :   0.8859 B(  4-C , 14-H ) :   0.9356
B(  4-C , 15-H ) :   0.9370 B(  4-C , 16-H ) :   0.9417 B(  5-C , 17-H ) :   0.9354
B(  5-C , 18-H ) :   0.9327 B(  5-C , 19-H ) :   0.9388 B(  6-C ,  7-C ) :   0.9145
B(  6-C ,  8-O ) :  -0.1045 B(  6-C , 20-H ) :   0.9199 B(  6-C , 21-H ) :   0.9174
B(  7-C ,  8-O ) :   1.0275 B(  7-C , 22-H ) :   0.9335 B(  7-C , 23-H ) :   0.9325
B(  8-O , 24-H ) :   0.8506

MP2 TOTAL ENERGY:     -425.933269507 Eh
FINAL SINGLE POINT ENERGY      -425.933269507307

DIPOLE MOMENT
-------------
                                X             Y             Z
Electronic contribution:      2.26953      -6.06294       1.28679
Nuclear contribution   :     -3.17021       6.78180      -1.14793
                        -----------------------------------------
Total Dipole Moment    :     -0.90068       0.71886       0.13886
                        -----------------------------------------
Magnitude (a.u.)       :      1.16071
Magnitude (Debye)      :      2.95030

                             ****ORCA TERMINATED NORMALLY****
TOTAL RUN TIME: 0 days 0 hours 21 minutes 1 seconds 251 msec
