                         Program Version 3.0.3 - RELEASE   -
|  1> ! RI-MP2 RIJK def2-TZVP def2-TZVP/C def2-TZVP/JK TIGHTSCF
|  2> % maxcore 2000
|  3> % mp2 density relaxed end
|  4> *xyz 0 1
|  5>  C       -0.0528390033     1.5826313637     0.0813798771
|  6>  C        0.0161208544     0.0669364855    -0.0411664733
|  7>  C        1.1096139545    -0.5589866143    -0.9812349419
|  8>  C        1.6713062830    -1.3102770617     0.2371238445
|  9>  O        2.0185897292    -0.2971835621     1.2090145692
| 10>  C        0.6495139731    -0.7087046722     1.1371664413
| 11>  C       -0.0013280290    -1.2136120495     2.3823253341
| 12>  C        2.3442702594    -2.5624352582     0.2766158622
| 13>  C        2.8956436797    -3.6317252280     0.2691364434
| 14>  H        0.9208712923     1.9837516930     0.3763275616
| 15>  H       -0.3378169411     2.0406753561    -0.8715548175
| 16>  H       -0.7915125358     1.8892976865     0.8301501699
| 17>  H       -0.9670678156    -0.3506535598    -0.2823293717
| 18>  H        0.6941119878    -1.2200974227    -1.7441050039
| 19>  H        1.8155371157     0.1379529099    -1.4394077784
| 20>  H       -0.2344092593    -0.3846496758     3.0603136390
| 21>  H       -0.9368405512    -1.7309749499     2.1475647629
| 22>  H        0.6644907219    -1.9059314996     2.9038223257
| 23>  H        3.3895572042    -4.5717974410     0.2715825161
| 24> *
| 25>
| 26>                          ****END OF INPUT****

CARTESIAN COORDINATES (ANGSTROEM)
---------------------------------
  C     -0.052839    1.582631    0.081380
  C      0.016121    0.066936   -0.041166
  C      1.109614   -0.558987   -0.981235
  C      1.671306   -1.310277    0.237124
  O      2.018590   -0.297184    1.209015
  C      0.649514   -0.708705    1.137166
  C     -0.001328   -1.213612    2.382325
  C      2.344270   -2.562435    0.276616
  C      2.895644   -3.631725    0.269136
  H      0.920871    1.983752    0.376328
  H     -0.337817    2.040675   -0.871555
  H     -0.791513    1.889298    0.830150
  H     -0.967068   -0.350654   -0.282329
  H      0.694112   -1.220097   -1.744105
  H      1.815537    0.137953   -1.439408
  H     -0.234409   -0.384650    3.060314
  H     -0.936841   -1.730975    2.147565
  H      0.664491   -1.905931    2.903822
  H      3.389557   -4.571797    0.271583

 Total Charge           Charge          ....    0
 Multiplicity           Mult            ....    1
 Number of Electrons    NEL             ....   66
 Basis Dimension        Dim             ....  339

ORBITAL ENERGIES
----------------

  NO   OCC          E(Eh)            E(eV)
   0   2.0000     -20.570434      -559.7500
   1   2.0000     -11.307289      -307.6870
   2   2.0000     -11.297337      -307.4162
   3   2.0000     -11.242696      -305.9293
   4   2.0000     -11.242218      -305.9163
   5   2.0000     -11.237405      -305.7853
   6   2.0000     -11.235240      -305.7264
   7   2.0000     -11.230363      -305.5937
   8   2.0000     -11.216367      -305.2129
   9   2.0000      -1.422527       -38.7089
  10   2.0000      -1.101665       -29.9778
  11   2.0000      -1.050104       -28.5748
  12   2.0000      -1.007592       -27.4180
  13   2.0000      -0.975828       -26.5536
  14   2.0000      -0.879583       -23.9347
  15   2.0000      -0.853243       -23.2179
  16   2.0000      -0.763691       -20.7811
  17   2.0000      -0.712611       -19.3911
  18   2.0000      -0.690853       -18.7991
  19   2.0000      -0.653046       -17.7703
  20   2.0000      -0.617672       -16.8077
  21   2.0000      -0.594840       -16.1864
  22   2.0000      -0.582759       -15.8577
  23   2.0000      -0.559443       -15.2232
  24   2.0000      -0.553219       -15.0539
  25   2.0000      -0.537295       -14.6205
  26   2.0000      -0.500704       -13.6249
  27   2.0000      -0.491039       -13.3618
  28   2.0000      -0.474083       -12.9004
  29   2.0000      -0.448842       -12.2136
  30   2.0000      -0.437889       -11.9156
  31   2.0000      -0.397325       -10.8118
  32   2.0000      -0.358339        -9.7509
  33   0.0000       0.132093         3.5944
  34   0.0000       0.151973         4.1354
  35   0.0000       0.158688         4.3181
  36   0.0000       0.161030         4.3818
  37   0.0000       0.167831         4.5669

MULLIKEN ATOMIC CHARGES
-----------------------
   0 C :   -0.454521
   1 C :    0.024638
   2 C :   -0.210961
   3 C :   -0.122844
   4 O :   -0.321481
   5 C :    0.161501
   6 C :   -0.418201
   7 C :    0.048068
   8 C :   -0.098742
   9 H :    0.151569
  10 H :    0.133645
  11 H :    0.128800
  12 H :    0.100317
  13 H :    0.125604
  14 H :    0.121422
  15 H :    0.144503
  16 H :    0.135790
  17 H :    0.155169
  18 H :    0.195725
Sum of atomic charges:   -0.0000000

LOEWDIN ATOMIC CHARGES
----------------------
   0 C :   -0.297062
   1 C :   -0.207062
   2 C :   -0.153549
   3 C :   -0.250359
   4 O :    0.221309
   5 C :   -0.257196
   6 C :   -0.265288
   7 C :   -0.067567
   8 C :   -0.069724
   9 H :    0.130612
  10 H :    0.125132
  11 H :    0.124299
  12 H :    0.151481
  13 H :    0.139517
  14 H :    0.137288
  15 H :    0.135054
  16 H :    0.134120
  17 H :    0.140167
  18 H :    0.128827

  Mayer bond orders larger than 0.1
B(  0-C ,  1-C ) :   0.8738 B(  0-C ,  9-H ) :   0.9403 B(  0-C , 10-H ) :   0.9380
B(  0-C , 11-H ) :   0.9370 B(  1-C ,  2-C ) :   0.9883 B(  1-C ,  5-C ) :   0.8981
B(  1-C , 12-H ) :   0.9041 B(  2-C ,  3-C ) :   0.9407 B(  2-C , 13-H ) :   0.9073
B(  2-C , 14-H ) :   0.8972 B(  3-C ,  4-O ) :   0.8697 B(  3-C ,  5-C ) :   0.8647
B(  3-C ,  7-C ) :   1.2101 B(  3-C ,  8-C ) :  -0.1711 B(  4-O ,  5-C ) :   0.8815
B(  5-C ,  6-C ) :   0.8643 B(  6-C , 15-H ) :   0.9361 B(  6-C , 16-H ) :   0.9379
B(  6-C , 17-H ) :   0.9359 B(  7-C ,  8-C ) :   2.6323 B(  8-C , 18-H ) :   0.8694

MP2 TOTAL ENERGY:     -385.144819470 Eh
FINAL SINGLE POINT ENERGY      -385.144819469630

DIPOLE MOMENT
-------------
                                X             Y             Z
Electronic contribution:      6.08863      -4.80754      -0.15975
Nuclear contribution   :     -6.79971       4.52321      -0.05480
                        -----------------------------------------
Total Dipole Moment    :     -0.71108      -0.28434      -0.21456
                        -----------------------------------------
Magnitude (a.u.)       :      0.79531
Magnitude (Debye)      :      2.02151

                             ****ORCA TERMINATED NORMALLY****
TOTAL RUN TIME: 0 days 0 hours 19 minutes 11 seconds 252 msec
