                         Program Version 3.0.3 - RELEASE   -
|  1> ! RI-MP2 RIJK def2-TZVP def2-TZVP/C def2-TZVP/JK TIGHTSCF
|  2> % maxcore 2000
|  3> % mp2 density relaxed end
|  4> *xyz 0 1
|  5>  C       -0.1467346658     1.5748972018    -0.0060980339
|  6>  C       -0.0013908568     0.0631370666     0.0295363780
|  7>  O       -1.2605953336    -0.4591978399     0.3645388388
|  8>  C        0.7866906020    -0.5984198527    -1.1850380827
|  9>  C        2.0941263987    -0.2430484333    -0.4126285940
| 10>  C        1.1982954573    -0.5691842506     0.7966071311
| 11>  O        0.9169683888    -1.9801408982     0.6366342124
| 12>  C        0.6572900430    -2.0704784318    -0.7981024971
| 13>  H        0.7500891482     2.0893055161    -0.3535768188
| 14>  H       -0.9706763602     1.8353045490    -0.6775721232
| 15>  H       -0.4022027146     1.9494268484     0.9898032984
| 16>  H       -1.0928547142    -1.3210637718     0.7694757539
| 17>  H        0.6116142070    -0.3233806574    -2.2243817921
| 18>  H        2.9558513782    -0.8969142408    -0.5602049843
| 19>  H        2.3902935925     0.8012558238    -0.4849127761
| 20>  H        1.4442461206    -0.3657577399     1.8383140998
| 21>  H       -0.3431808406    -2.4807673473    -0.9676676390
| 22>  H        1.4013396296    -2.7210216321    -1.2693735210
| 23> *
| 24>
| 25>                          ****END OF INPUT****

CARTESIAN COORDINATES (ANGSTROEM)
---------------------------------
  C     -0.146735    1.574897   -0.006098
  C     -0.001391    0.063137    0.029536
  O     -1.260595   -0.459198    0.364539
  C      0.786691   -0.598420   -1.185038
  C      2.094126   -0.243048   -0.412629
  C      1.198295   -0.569184    0.796607
  O      0.916968   -1.980141    0.636634
  C      0.657290   -2.070478   -0.798102
  H      0.750089    2.089306   -0.353577
  H     -0.970676    1.835305   -0.677572
  H     -0.402203    1.949427    0.989803
  H     -1.092855   -1.321064    0.769476
  H      0.611614   -0.323381   -2.224382
  H      2.955851   -0.896914   -0.560205
  H      2.390294    0.801256   -0.484913
  H      1.444246   -0.365758    1.838314
  H     -0.343181   -2.480767   -0.967668
  H      1.401340   -2.721022   -1.269374

 Total Charge           Charge          ....    0
 Multiplicity           Mult            ....    1
 Number of Electrons    NEL             ....   62
 Basis Dimension        Dim             ....  308

ORBITAL ENERGIES
----------------

  NO   OCC          E(Eh)            E(eV)
   0   2.0000     -20.560884      -559.4901
   1   2.0000     -20.551451      -559.2334
   2   2.0000     -11.291975      -307.2703
   3   2.0000     -11.287067      -307.1367
   4   2.0000     -11.279252      -306.9241
   5   2.0000     -11.241731      -305.9031
   6   2.0000     -11.232483      -305.6514
   7   2.0000     -11.218985      -305.2841
   8   2.0000      -1.400105       -38.0988
   9   2.0000      -1.350486       -36.7486
  10   2.0000      -1.124037       -30.5866
  11   2.0000      -0.995701       -27.0944
  12   2.0000      -0.971520       -26.4364
  13   2.0000      -0.866597       -23.5813
  14   2.0000      -0.799028       -21.7427
  15   2.0000      -0.756507       -20.5856
  16   2.0000      -0.724745       -19.7213
  17   2.0000      -0.694270       -18.8921
  18   2.0000      -0.643476       -17.5099
  19   2.0000      -0.617581       -16.8052
  20   2.0000      -0.580055       -15.7841
  21   2.0000      -0.556883       -15.1535
  22   2.0000      -0.555468       -15.1150
  23   2.0000      -0.540216       -14.7000
  24   2.0000      -0.534983       -14.5576
  25   2.0000      -0.512753       -13.9527
  26   2.0000      -0.502156       -13.6644
  27   2.0000      -0.487373       -13.2621
  28   2.0000      -0.452276       -12.3071
  29   2.0000      -0.429472       -11.6865
  30   2.0000      -0.389670       -10.6035
  31   0.0000       0.140877         3.8335
  32   0.0000       0.162913         4.4331
  33   0.0000       0.171969         4.6795
  34   0.0000       0.177211         4.8222
  35   0.0000       0.185970         5.0605

MULLIKEN ATOMIC CHARGES
-----------------------
   0 C :   -0.422446
   1 C :    0.150376
   2 O :   -0.467264
   3 C :   -0.059406
   4 C :   -0.306822
   5 C :    0.091824
   6 O :   -0.357497
   7 C :   -0.139697
   8 H :    0.125624
   9 H :    0.142525
  10 H :    0.136070
  11 H :    0.332943
  12 H :    0.139828
  13 H :    0.122452
  14 H :    0.131569
  15 H :    0.131308
  16 H :    0.131037
  17 H :    0.117577
Sum of atomic charges:   -0.0000000

LOEWDIN ATOMIC CHARGES
----------------------
   0 C :   -0.265676
   1 C :   -0.350512
   2 O :    0.024279
   3 C :   -0.187094
   4 C :   -0.202682
   5 C :   -0.246868
   6 O :    0.130736
   7 C :   -0.264059
   8 H :    0.125281
   9 H :    0.134012
  10 H :    0.130618
  11 H :    0.183074
  12 H :    0.138185
  13 H :    0.133721
  14 H :    0.136521
  15 H :    0.132449
  16 H :    0.123709
  17 H :    0.124307

  Mayer bond orders larger than 0.1
B(  0-C ,  1-C ) :   0.9191 B(  0-C ,  8-H ) :   0.9395 B(  0-C ,  9-H ) :   0.9369
B(  0-C , 10-H ) :   0.9360 B(  1-C ,  2-O ) :   1.0076 B(  1-C ,  3-C ) :   0.8241
B(  1-C ,  5-C ) :   0.9232 B(  2-O , 11-H ) :   0.8139 B(  3-C ,  4-C ) :   0.9050
B(  3-C ,  7-C ) :   0.9142 B(  3-C , 12-H ) :   0.8953 B(  4-C ,  5-C ) :   0.9323
B(  4-C , 13-H ) :   0.9115 B(  4-C , 14-H ) :   0.9268 B(  5-C ,  6-O ) :   0.8843
B(  5-C , 15-H ) :   0.9073 B(  6-O ,  7-C ) :   0.8923 B(  7-C , 16-H ) :   0.9442
B(  7-C , 17-H ) :   0.9202

MP2 TOTAL ENERGY:     -384.295938116 Eh
FINAL SINGLE POINT ENERGY      -384.295938116170

DIPOLE MOMENT
-------------
                                X             Y             Z
Electronic contribution:     -1.12713      -3.52269       1.86792
Nuclear contribution   :      1.67133       3.78119      -2.25938
                        -----------------------------------------
Total Dipole Moment    :      0.54420       0.25850      -0.39146
                        -----------------------------------------
Magnitude (a.u.)       :      0.71848
Magnitude (Debye)      :      1.82624

                             ****ORCA TERMINATED NORMALLY****
TOTAL RUN TIME: 0 days 0 hours 13 minutes 42 seconds 64 msec
