                         Program Version 3.0.3 - RELEASE   -
|  1> ! RI-MP2 RIJK def2-TZVP def2-TZVP/C def2-TZVP/JK TIGHTSCF
|  2> % maxcore 2000
|  3> % mp2 density relaxed end
|  4> *xyz 0 1
|  5>  C        0.0888453916     1.4578484730    -0.1489318422
|  6>  C        0.0193102967    -0.0115759814     0.1810259075
|  7>  N        0.8303900486    -0.4236947424     1.1872055424
|  8>  N       -0.7905224895    -0.7562729227    -0.5028450845
|  9>  C       -0.9152684825    -2.1057168071    -0.2650948934
| 10>  N       -0.2651654351    -2.8497017929     0.6552871933
| 11>  N       -0.7498192769    -4.0755815922     0.4642909781
| 12>  N       -1.6558324867    -4.2102749724    -0.4934332110
| 13>  C       -1.7793730926    -2.9770108957    -0.9718525868
| 14>  H        1.1056482671     1.7436067044    -0.4417966285
| 15>  H       -0.5945358088     1.6756198760    -0.9677932951
| 16>  H       -0.1857769561     2.0654954576     0.7209819213
| 17>  H        1.4263067708     0.2306787397     1.6615987444
| 18>  H        0.8289565527    -1.3982444447     1.4560092370
| 19>  H       -0.4437322666    -4.8588328908     1.0169095135
| 20>  H       -2.4554785525    -2.7455715985    -1.7782809159
| 21> *
| 22>
| 23>                          ****END OF INPUT****

CARTESIAN COORDINATES (ANGSTROEM)
---------------------------------
  C      0.088845    1.457848   -0.148932
  C      0.019310   -0.011576    0.181026
  N      0.830390   -0.423695    1.187206
  N     -0.790522   -0.756273   -0.502845
  C     -0.915268   -2.105717   -0.265095
  N     -0.265165   -2.849702    0.655287
  N     -0.749819   -4.075582    0.464291
  N     -1.655832   -4.210275   -0.493433
  C     -1.779373   -2.977011   -0.971853
  H      1.105648    1.743607   -0.441797
  H     -0.594536    1.675620   -0.967793
  H     -0.185777    2.065495    0.720982
  H      1.426307    0.230679    1.661599
  H      0.828957   -1.398244    1.456009
  H     -0.443732   -4.858833    1.016910
  H     -2.455479   -2.745572   -1.778281

 Total Charge           Charge          ....    0
 Multiplicity           Mult            ....    1
 Number of Electrons    NEL             ....   66
 Basis Dimension        Dim             ....  321

ORBITAL ENERGIES
----------------

  NO   OCC          E(Eh)            E(eV)
   0   2.0000     -15.664719      -426.2587
   1   2.0000     -15.610776      -424.7908
   2   2.0000     -15.597814      -424.4381
   3   2.0000     -15.578561      -423.9142
   4   2.0000     -15.530552      -422.6078
   5   2.0000     -11.330790      -308.3265
   6   2.0000     -11.288584      -307.1780
   7   2.0000     -11.246776      -306.0403
   8   2.0000     -11.235584      -305.7358
   9   2.0000      -1.434325       -39.0300
  10   2.0000      -1.283081       -34.9144
  11   2.0000      -1.190383       -32.3920
  12   2.0000      -1.164244       -31.6807
  13   2.0000      -1.079833       -29.3837
  14   2.0000      -0.997691       -27.1485
  15   2.0000      -0.868411       -23.6307
  16   2.0000      -0.829450       -22.5705
  17   2.0000      -0.775685       -21.1075
  18   2.0000      -0.747809       -20.3489
  19   2.0000      -0.706869       -19.2349
  20   2.0000      -0.683170       -18.5900
  21   2.0000      -0.644658       -17.5420
  22   2.0000      -0.609721       -16.5914
  23   2.0000      -0.604104       -16.4385
  24   2.0000      -0.579711       -15.7747
  25   2.0000      -0.557745       -15.1770
  26   2.0000      -0.514328       -13.9956
  27   2.0000      -0.491413       -13.3720
  28   2.0000      -0.467249       -12.7145
  29   2.0000      -0.428624       -11.6635
  30   2.0000      -0.420902       -11.4533
  31   2.0000      -0.389730       -10.6051
  32   2.0000      -0.311840        -8.4856
  33   0.0000       0.124749         3.3946
  34   0.0000       0.127448         3.4680
  35   0.0000       0.141833         3.8595
  36   0.0000       0.168601         4.5879
  37   0.0000       0.176103         4.7920

MULLIKEN ATOMIC CHARGES
-----------------------
   0 C :   -0.428150
   1 C :    0.277561
   2 N :   -0.485205
   3 N :   -0.344159
   4 C :    0.231915
   5 N :   -0.257097
   6 N :   -0.047164
   7 N :   -0.177563
   8 C :   -0.136956
   9 H :    0.140243
  10 H :    0.157111
  11 H :    0.140485
  12 H :    0.249071
  13 H :    0.279312
  14 H :    0.263875
  15 H :    0.136719
Sum of atomic charges:   -0.0000000

LOEWDIN ATOMIC CHARGES
----------------------
   0 C :   -0.270579
   1 C :   -0.368161
   2 N :   -0.003726
   3 N :    0.105393
   4 C :   -0.359500
   5 N :    0.007788
   6 N :    0.052803
   7 N :    0.015908
   8 C :   -0.244329
   9 H :    0.130863
  10 H :    0.138227
  11 H :    0.131017
  12 H :    0.171296
  13 H :    0.167893
  14 H :    0.185451
  15 H :    0.139654

  Mayer bond orders larger than 0.1
B(  0-C ,  1-C ) :   0.8870 B(  0-C ,  9-H ) :   0.9299 B(  0-C , 10-H ) :   0.9432
B(  0-C , 11-H ) :   0.9296 B(  1-C ,  2-N ) :   1.1762 B(  1-C ,  3-N ) :   1.7010
B(  2-N , 12-H ) :   0.8746 B(  2-N , 13-H ) :   0.8263 B(  3-N ,  4-C ) :   1.1395
B(  4-C ,  5-N ) :   1.3227 B(  4-C ,  8-C ) :   1.3112 B(  5-N ,  6-N ) :   1.1178
B(  6-N ,  7-N ) :   1.1392 B(  6-N , 14-H ) :   0.8791 B(  7-N ,  8-C ) :   1.5090
B(  8-C , 15-H ) :   0.9344

MP2 TOTAL ENERGY:     -429.551304530 Eh
FINAL SINGLE POINT ENERGY      -429.551304529818

DIPOLE MOMENT
-------------
                                X             Y             Z
Electronic contribution:     -2.31527      -8.02398      -0.32243
Nuclear contribution   :      3.28289       8.41580       1.27843
                        -----------------------------------------
Total Dipole Moment    :      0.96761       0.39182       0.95599
                        -----------------------------------------
Magnitude (a.u.)       :      1.41553
Magnitude (Debye)      :      3.59799

                             ****ORCA TERMINATED NORMALLY****
TOTAL RUN TIME: 0 days 0 hours 14 minutes 46 seconds 386 msec
