                         Program Version 3.0.3 - RELEASE   -
|  1> ! RI-MP2 RIJK def2-TZVP def2-TZVP/C def2-TZVP/JK TIGHTSCF
|  2> % maxcore 2000
|  3> % mp2 density relaxed end
|  4> *xyz 0 1
|  5>  C       -0.1074655624     1.5847527895    -0.0063040101
|  6>  C        0.0377844773     0.0796843026     0.0318339275
|  7>  C        1.3012633840    -0.6689666425    -0.3340807514
|  8>  C        2.6348358287     0.0768828613    -0.3485967538
|  9>  C        3.1339731801     0.0934590108     1.1295414207
| 10>  C        3.9338044668    -1.1933268591     1.4017368704
| 11>  C        3.9960508666     1.3192394024     1.4459668461
| 12>  C        1.8154232473     0.0564952234     1.9628234894
| 13>  C        0.7928953713    -0.6816431753     1.0999720664
| 14>  H        0.7933253548     2.1116549260     0.3172836706
| 15>  H       -0.3360526731     1.9267417130    -1.0221518486
| 16>  H       -0.9262087463     1.9120393023     0.6446199854
| 17>  H       -0.8669020429    -0.4305779269    -0.2933942600
| 18>  H        1.1990420354    -1.5444298664    -0.9662076246
| 19>  H        3.3582365492    -0.4194476591    -1.0030854990
| 20>  H        2.5261791220     1.0991526033    -0.7298524324
| 21>  H        4.8364340294    -1.2358320267     0.7818032174
| 22>  H        4.2446877704    -1.2505590583     2.4509941611
| 23>  H        3.3343723195    -2.0831852321     1.1813808219
| 24>  H        3.4478917515     2.2497120012     1.2598486563
| 25>  H        4.3117531673     1.3230710668     2.4955209551
| 26>  H        4.9022683558     1.3377643765     0.8297906455
| 27>  H        1.9678660187    -0.4540114716     2.9189362784
| 28>  H        1.4852104819     1.0732558232     2.2064526400
| 29>  H        0.3202761467    -1.5663468244     1.5127670078
| 30> *
| 31>
| 32>                          ****END OF INPUT****

CARTESIAN COORDINATES (ANGSTROEM)
---------------------------------
  C     -0.107466    1.584753   -0.006304
  C      0.037784    0.079684    0.031834
  C      1.301263   -0.668967   -0.334081
  C      2.634836    0.076883   -0.348597
  C      3.133973    0.093459    1.129541
  C      3.933804   -1.193327    1.401737
  C      3.996051    1.319239    1.445967
  C      1.815423    0.056495    1.962823
  C      0.792895   -0.681643    1.099972
  H      0.793325    2.111655    0.317284
  H     -0.336053    1.926742   -1.022152
  H     -0.926209    1.912039    0.644620
  H     -0.866902   -0.430578   -0.293394
  H      1.199042   -1.544430   -0.966208
  H      3.358237   -0.419448   -1.003085
  H      2.526179    1.099153   -0.729852
  H      4.836434   -1.235832    0.781803
  H      4.244688   -1.250559    2.450994
  H      3.334372   -2.083185    1.181381
  H      3.447892    2.249712    1.259849
  H      4.311753    1.323071    2.495521
  H      4.902268    1.337764    0.829791
  H      1.967866   -0.454011    2.918936
  H      1.485210    1.073256    2.206453
  H      0.320276   -1.566347    1.512767

 Total Charge           Charge          ....    0
 Multiplicity           Mult            ....    1
 Number of Electrons    NEL             ....   70
 Basis Dimension        Dim             ....  375

ORBITAL ENERGIES
----------------

  NO   OCC          E(Eh)            E(eV)
   0   2.0000     -11.228157      -305.5337
   1   2.0000     -11.224534      -305.4351
   2   2.0000     -11.217492      -305.2435
   3   2.0000     -11.216880      -305.2268
   4   2.0000     -11.212487      -305.1073
   5   2.0000     -11.212097      -305.0967
   6   2.0000     -11.212078      -305.0962
   7   2.0000     -11.207693      -304.9768
   8   2.0000     -11.206356      -304.9405
   9   2.0000      -1.167721       -31.7753
  10   2.0000      -1.075523       -29.2665
  11   2.0000      -0.969167       -26.3724
  12   2.0000      -0.954545       -25.9745
  13   2.0000      -0.925329       -25.1795
  14   2.0000      -0.912460       -24.8293
  15   2.0000      -0.758027       -20.6270
  16   2.0000      -0.750853       -20.4318
  17   2.0000      -0.719241       -19.5715
  18   2.0000      -0.678869       -18.4730
  19   2.0000      -0.614646       -16.7254
  20   2.0000      -0.596929       -16.2433
  21   2.0000      -0.593481       -16.1494
  22   2.0000      -0.571185       -15.5427
  23   2.0000      -0.554501       -15.0887
  24   2.0000      -0.544189       -14.8081
  25   2.0000      -0.543335       -14.7849
  26   2.0000      -0.512727       -13.9520
  27   2.0000      -0.511224       -13.9111
  28   2.0000      -0.496784       -13.5182
  29   2.0000      -0.481667       -13.1068
  30   2.0000      -0.452368       -12.3096
  31   2.0000      -0.440412       -11.9842
  32   2.0000      -0.437409       -11.9025
  33   2.0000      -0.385848       -10.4995
  34   2.0000      -0.377129       -10.2622
  35   0.0000       0.129849         3.5334
  36   0.0000       0.154014         4.1909
  37   0.0000       0.161589         4.3971
  38   0.0000       0.186937         5.0868
  39   0.0000       0.191480         5.2104

MULLIKEN ATOMIC CHARGES
-----------------------
   0 C :   -0.404768
   1 C :   -0.171377
   2 C :   -0.067094
   3 C :   -0.307757
   4 C :    0.174866
   5 C :   -0.473061
   6 C :   -0.416854
   7 C :   -0.307734
   8 C :   -0.067070
   9 H :    0.127108
  10 H :    0.135391
  11 H :    0.135390
  12 H :    0.109899
  13 H :    0.124697
  14 H :    0.118778
  15 H :    0.133098
  16 H :    0.127128
  17 H :    0.127128
  18 H :    0.142528
  19 H :    0.124407
  20 H :    0.129363
  21 H :    0.129364
  22 H :    0.118777
  23 H :    0.133094
  24 H :    0.124698
Sum of atomic charges:   -0.0000000

LOEWDIN ATOMIC CHARGES
----------------------
   0 C :   -0.296267
   1 C :   -0.217082
   2 C :   -0.180742
   3 C :   -0.193069
   4 C :   -0.302650
   5 C :   -0.271581
   6 C :   -0.278267
   7 C :   -0.193066
   8 C :   -0.180744
   9 H :    0.121744
  10 H :    0.126741
  11 H :    0.126741
  12 H :    0.150768
  13 H :    0.140168
  14 H :    0.140624
  15 H :    0.139041
  16 H :    0.122985
  17 H :    0.122985
  18 H :    0.129436
  19 H :    0.121936
  20 H :    0.125232
  21 H :    0.125232
  22 H :    0.140623
  23 H :    0.139045
  24 H :    0.140167

  Mayer bond orders larger than 0.1
B(  0-C ,  1-C ) :   0.9071 B(  0-C ,  9-H ) :   0.9400 B(  0-C , 10-H ) :   0.9376
B(  0-C , 11-H ) :   0.9376 B(  1-C ,  2-C ) :   0.8908 B(  1-C ,  8-C ) :   0.8908
B(  1-C , 12-H ) :   0.9324 B(  2-C ,  3-C ) :   0.9020 B(  2-C ,  8-C ) :   0.8121
B(  2-C , 13-H ) :   0.9243 B(  3-C ,  4-C ) :   0.9064 B(  3-C , 14-H ) :   0.9258
B(  3-C , 15-H ) :   0.9279 B(  4-C ,  5-C ) :   0.8985 B(  4-C ,  6-C ) :   0.8913
B(  4-C ,  7-C ) :   0.9064 B(  5-C , 16-H ) :   0.9389 B(  5-C , 17-H ) :   0.9389
B(  5-C , 18-H ) :   0.9391 B(  6-C , 19-H ) :   0.9359 B(  6-C , 20-H ) :   0.9381
B(  6-C , 21-H ) :   0.9381 B(  7-C ,  8-C ) :   0.9020 B(  7-C , 22-H ) :   0.9258
B(  7-C , 23-H ) :   0.9279 B(  8-C , 24-H ) :   0.9243

MP2 TOTAL ENERGY:     -351.722055441 Eh
FINAL SINGLE POINT ENERGY      -351.722055441136

DIPOLE MOMENT
-------------
                                X             Y             Z
Electronic contribution:     -2.81081      -2.36736      -1.01743
Nuclear contribution   :      2.79095       2.33808       1.01014
                        -----------------------------------------
Total Dipole Moment    :     -0.01986      -0.02928      -0.00730
                        -----------------------------------------
Magnitude (a.u.)       :      0.03613
Magnitude (Debye)      :      0.09183

                             ****ORCA TERMINATED NORMALLY****
TOTAL RUN TIME: 0 days 0 hours 23 minutes 54 seconds 112 msec
