                         Program Version 3.0.3 - RELEASE   -
|  1> ! RI-MP2 RIJK def2-TZVP def2-TZVP/C def2-TZVP/JK TIGHTSCF
|  2> % maxcore 2000
|  3> % mp2 density relaxed end
|  4> *xyz 0 1
|  5>  C        0.3451774808     1.6227080531    -0.3715910541
|  6>  C        0.1493631522     0.1616200896    -0.0632338030
|  7>  O        1.3188741048    -0.6626631551     0.0486823287
|  8>  C        0.4932075880    -0.4966107666     1.2068148615
|  9>  C        1.1269574190     0.1905211048     2.3930751203
| 10>  O        0.0935007134     0.5386558953     3.2953308801
| 11>  C        2.1325265375    -0.7326087697     3.0907119060
| 12>  O        2.5454697870    -0.1631116068     4.3316475594
| 13>  H        1.1509873805     2.0629216308     0.2186602825
| 14>  H        0.5921733051     1.7525100163    -1.4304540188
| 15>  H       -0.5775022867     2.1769863060    -0.1704113658
| 16>  H       -0.6502878139    -0.3116091307    -0.6371793276
| 17>  H       -0.0832244438    -1.3819559198     1.4845489402
| 18>  H        1.6690591937     1.0885514036     2.0517935310
| 19>  H        0.5203602696     0.5966695875     4.1613578928
| 20>  H        1.6448017448    -1.6782999532     3.3494410863
| 21>  H        2.9818262352    -0.9480731180     2.4305099170
| 22>  H        3.1413047327     0.5690295630     4.1392184136
| 23> *
| 24>
| 25>                          ****END OF INPUT****

CARTESIAN COORDINATES (ANGSTROEM)
---------------------------------
  C      0.345177    1.622708   -0.371591
  C      0.149363    0.161620   -0.063234
  O      1.318874   -0.662663    0.048682
  C      0.493208   -0.496611    1.206815
  C      1.126957    0.190521    2.393075
  O      0.093501    0.538656    3.295331
  C      2.132527   -0.732609    3.090712
  O      2.545470   -0.163112    4.331648
  H      1.150987    2.062922    0.218660
  H      0.592173    1.752510   -1.430454
  H     -0.577502    2.176986   -0.170411
  H     -0.650288   -0.311609   -0.637179
  H     -0.083224   -1.381956    1.484549
  H      1.669059    1.088551    2.051794
  H      0.520360    0.596670    4.161358
  H      1.644802   -1.678300    3.349441
  H      2.981826   -0.948073    2.430510
  H      3.141305    0.569030    4.139218

 Total Charge           Charge          ....    0
 Multiplicity           Mult            ....    1
 Number of Electrons    NEL             ....   64
 Basis Dimension        Dim             ....  308

ORBITAL ENERGIES
----------------

  NO   OCC          E(Eh)            E(eV)
   0   2.0000     -20.576695      -559.9203
   1   2.0000     -20.568222      -559.6898
   2   2.0000     -20.558073      -559.4136
   3   2.0000     -11.290950      -307.2424
   4   2.0000     -11.289678      -307.2078
   5   2.0000     -11.286471      -307.1205
   6   2.0000     -11.286191      -307.1129
   7   2.0000     -11.227865      -305.5257
   8   2.0000      -1.413494       -38.4631
   9   2.0000      -1.388447       -37.7816
  10   2.0000      -1.356802       -36.9205
  11   2.0000      -1.029565       -28.0159
  12   2.0000      -1.013635       -27.5824
  13   2.0000      -0.916487       -24.9389
  14   2.0000      -0.850557       -23.1448
  15   2.0000      -0.785828       -21.3835
  16   2.0000      -0.715480       -19.4692
  17   2.0000      -0.707144       -19.2424
  18   2.0000      -0.693115       -18.8606
  19   2.0000      -0.652892       -17.7661
  20   2.0000      -0.628119       -17.0920
  21   2.0000      -0.596025       -16.2187
  22   2.0000      -0.585134       -15.9223
  23   2.0000      -0.569017       -15.4837
  24   2.0000      -0.546628       -14.8745
  25   2.0000      -0.529949       -14.4206
  26   2.0000      -0.517413       -14.0795
  27   2.0000      -0.509683       -13.8692
  28   2.0000      -0.482221       -13.1219
  29   2.0000      -0.452670       -12.3178
  30   2.0000      -0.446299       -12.1444
  31   2.0000      -0.418132       -11.3779
  32   0.0000       0.124669         3.3924
  33   0.0000       0.150270         4.0891
  34   0.0000       0.162597         4.4245
  35   0.0000       0.177623         4.8334
  36   0.0000       0.190094         5.1727

MULLIKEN ATOMIC CHARGES
-----------------------
   0 C :   -0.380259
   1 C :    0.055620
   2 O :   -0.349872
   3 C :    0.030519
   4 C :    0.080985
   5 O :   -0.480496
   6 C :   -0.074554
   7 O :   -0.486343
   8 H :    0.128825
   9 H :    0.140615
  10 H :    0.136154
  11 H :    0.110861
  12 H :    0.122271
  13 H :    0.057294
  14 H :    0.332859
  15 H :    0.122792
  16 H :    0.129098
  17 H :    0.323629
Sum of atomic charges:   -0.0000000

LOEWDIN ATOMIC CHARGES
----------------------
   0 C :   -0.292303
   1 C :   -0.283601
   2 O :    0.157088
   3 C :   -0.249901
   4 C :   -0.362866
   5 O :   -0.013072
   6 C :   -0.322978
   7 O :   -0.054116
   8 H :    0.124935
   9 H :    0.130205
  10 H :    0.133879
  11 H :    0.138567
  12 H :    0.142970
  13 H :    0.133784
  14 H :    0.178986
  15 H :    0.134279
  16 H :    0.127009
  17 H :    0.177134

  Mayer bond orders larger than 0.1
B(  0-C ,  1-C ) :   0.8959 B(  0-C ,  8-H ) :   0.9427 B(  0-C ,  9-H ) :   0.9334
B(  0-C , 10-H ) :   0.9245 B(  1-C ,  2-O ) :   0.8900 B(  1-C ,  3-C ) :   0.9788
B(  1-C , 11-H ) :   0.9181 B(  2-O ,  3-C ) :   0.8778 B(  3-C ,  4-C ) :   0.9033
B(  3-C , 12-H ) :   0.9016 B(  4-C ,  5-O ) :   0.9708 B(  4-C ,  6-C ) :   0.9526
B(  4-C , 13-H ) :   0.9087 B(  5-O , 14-H ) :   0.8174 B(  6-C ,  7-O ) :   0.8865
B(  6-C , 15-H ) :   0.9224 B(  6-C , 16-H ) :   0.9327 B(  7-O , 17-H ) :   0.8426

MP2 TOTAL ENERGY:     -421.393735932 Eh
FINAL SINGLE POINT ENERGY      -421.393735931692

DIPOLE MOMENT
-------------
                                X             Y             Z
Electronic contribution:      0.43298      -2.53218       2.17629
Nuclear contribution   :     -0.15309       3.01582      -2.30217
                        -----------------------------------------
Total Dipole Moment    :      0.27989       0.48364      -0.12588
                        -----------------------------------------
Magnitude (a.u.)       :      0.57279
Magnitude (Debye)      :      1.45592

                             ****ORCA TERMINATED NORMALLY****
TOTAL RUN TIME: 0 days 0 hours 10 minutes 24 seconds 13 msec
