                         Program Version 3.0.3 - RELEASE   -
|  1> ! RI-MP2 RIJK def2-TZVP def2-TZVP/C def2-TZVP/JK TIGHTSCF
|  2> % maxcore 2000
|  3> % mp2 density relaxed end
|  4> *xyz 0 1
|  5>  O       -0.0525293886     1.3713248319    -0.0271710674
|  6>  C        0.0412360247     0.0021130556    -0.0341840496
|  7>  C        0.6093312936    -0.9507920616    -1.1172160123
|  8>  C        0.0170939862    -1.8787704389    -0.0322673750
|  9>  C        0.5847502867    -0.9586151223     1.0784543394
| 10>  O       -0.3003013793    -0.9447609590     2.2006938255
| 11>  C       -1.5437692642    -0.9121570802     1.6048971442
| 12>  O       -2.5751247184    -0.8987577933     2.2032842902
| 13>  C       -1.2174723599    -0.9137439505     0.1271823575
| 14>  H        0.8307889300     1.7504707362    -0.0961933863
| 15>  H        0.0964833275    -0.9453271305    -2.0806079269
| 16>  H        1.6965659308    -0.9718799801    -1.2425925707
| 17>  H       -0.0183962712    -2.9647482598    -0.0218536286
| 18>  H        1.6249057721    -0.9846610472     1.3963279945
| 19>  H       -2.0305814802    -0.8966912402    -0.5932596046
| 20> *
| 21>
| 22>                          ****END OF INPUT****

CARTESIAN COORDINATES (ANGSTROEM)
---------------------------------
  O     -0.052529    1.371325   -0.027171
  C      0.041236    0.002113   -0.034184
  C      0.609331   -0.950792   -1.117216
  C      0.017094   -1.878770   -0.032267
  C      0.584750   -0.958615    1.078454
  O     -0.300301   -0.944761    2.200694
  C     -1.543769   -0.912157    1.604897
  O     -2.575125   -0.898758    2.203284
  C     -1.217472   -0.913744    0.127182
  H      0.830789    1.750471   -0.096193
  H      0.096483   -0.945327   -2.080608
  H      1.696566   -0.971880   -1.242593
  H     -0.018396   -2.964748   -0.021854
  H      1.624906   -0.984661    1.396328
  H     -2.030581   -0.896691   -0.593260

 Total Charge           Charge          ....    0
 Multiplicity           Mult            ....    1
 Number of Electrons    NEL             ....   66
 Basis Dimension        Dim             ....  315

ORBITAL ENERGIES
----------------

  NO   OCC          E(Eh)            E(eV)
   0   2.0000     -20.600280      -560.5621
   1   2.0000     -20.593935      -560.3895
   2   2.0000     -20.546290      -559.0930
   3   2.0000     -11.378508      -309.6249
   4   2.0000     -11.334789      -308.4353
   5   2.0000     -11.319283      -308.0134
   6   2.0000     -11.280019      -306.9449
   7   2.0000     -11.272080      -306.7289
   8   2.0000     -11.261714      -306.4468
   9   2.0000      -1.465513       -39.8786
  10   2.0000      -1.408718       -38.3332
  11   2.0000      -1.374515       -37.4024
  12   2.0000      -1.229119       -33.4460
  13   2.0000      -0.990566       -26.9547
  14   2.0000      -0.935820       -25.4650
  15   2.0000      -0.888062       -24.1654
  16   2.0000      -0.798861       -21.7381
  17   2.0000      -0.787627       -21.4324
  18   2.0000      -0.748676       -20.3725
  19   2.0000      -0.700706       -19.0672
  20   2.0000      -0.656451       -17.8629
  21   2.0000      -0.651342       -17.7239
  22   2.0000      -0.640284       -17.4230
  23   2.0000      -0.612630       -16.6705
  24   2.0000      -0.592477       -16.1221
  25   2.0000      -0.563583       -15.3359
  26   2.0000      -0.531133       -14.4529
  27   2.0000      -0.520223       -14.1560
  28   2.0000      -0.501219       -13.6389
  29   2.0000      -0.486334       -13.2338
  30   2.0000      -0.466502       -12.6942
  31   2.0000      -0.430951       -11.7268
  32   2.0000      -0.417767       -11.3680
  33   0.0000       0.118500         3.2245
  34   0.0000       0.138089         3.7576
  35   0.0000       0.153548         4.1783
  36   0.0000       0.163533         4.4500
  37   0.0000       0.175657         4.7799

MULLIKEN ATOMIC CHARGES
-----------------------
   0 O :   -0.445067
   1 C :    0.095794
   2 C :   -0.225660
   3 C :   -0.156772
   4 C :    0.071139
   5 O :   -0.251890
   6 C :    0.236125
   7 O :   -0.265288
   8 C :   -0.096799
   9 H :    0.331328
  10 H :    0.132616
  11 H :    0.124166
  12 H :    0.162985
  13 H :    0.140696
  14 H :    0.146628
Sum of atomic charges:    0.0000000

LOEWDIN ATOMIC CHARGES
----------------------
   0 O :    0.048264
   1 C :   -0.313223
   2 C :   -0.178507
   3 C :   -0.130891
   4 C :   -0.200656
   5 O :    0.258502
   6 C :   -0.422849
   7 O :    0.155404
   8 C :   -0.106406
   9 H :    0.191226
  10 H :    0.136360
  11 H :    0.130772
  12 H :    0.137685
  13 H :    0.140549
  14 H :    0.153770

  Mayer bond orders larger than 0.1
B(  0-O ,  1-C ) :   1.0461 B(  0-O ,  9-H ) :   0.8285 B(  1-C ,  2-C ) :   0.9129
B(  1-C ,  4-C ) :   0.8415 B(  1-C ,  8-C ) :   0.8389 B(  2-C ,  3-C ) :   0.9106
B(  2-C , 10-H ) :   0.9254 B(  2-C , 11-H ) :   0.9240 B(  3-C ,  4-C ) :   0.8656
B(  3-C ,  8-C ) :   0.8441 B(  3-C , 12-H ) :   0.8965 B(  4-C ,  5-O ) :   0.8826
B(  4-C , 13-H ) :   0.9243 B(  5-O ,  6-C ) :   1.0766 B(  6-C ,  7-O ) :   2.0510
B(  6-C ,  8-C ) :   0.9174 B(  8-C , 14-H ) :   0.9143

MP2 TOTAL ENERGY:     -457.024747747 Eh
FINAL SINGLE POINT ENERGY      -457.024747746525

DIPOLE MOMENT
-------------
                                X             Y             Z
Electronic contribution:     -3.20464       0.93674       4.87370
Nuclear contribution   :      4.84342      -1.11032      -6.32002
                        -----------------------------------------
Total Dipole Moment    :      1.63878      -0.17358      -1.44632
                        -----------------------------------------
Magnitude (a.u.)       :      2.19262
Magnitude (Debye)      :      5.57319

                             ****ORCA TERMINATED NORMALLY****
TOTAL RUN TIME: 0 days 0 hours 15 minutes 48 seconds 373 msec
