                         Program Version 3.0.3 - RELEASE   -
|  1> ! RI-MP2 RIJK def2-TZVP def2-TZVP/C def2-TZVP/JK TIGHTSCF
|  2> % maxcore 2000
|  3> % mp2 density relaxed end
|  4> *xyz 0 1
|  5>  C       -0.0185745776     1.5352074939    -0.0377743053
|  6>  C        0.0306358529     0.0327404502    -0.0365854121
|  7>  C        0.0125641311    -0.7292374953    -1.1964132308
|  8>  C        0.0608421182    -2.1249001496    -1.1300996632
|  9>  O        0.0464507746    -2.9335135652    -2.2308379243
| 10>  C        0.1269104922    -2.7173958864     0.1245061742
| 11>  N        0.1453767906    -2.0024742987     1.2549917442
| 12>  C        0.0988911907    -0.6843798110     1.1706564248
| 13>  O        0.1192015202     0.0225683373     2.3301689250
| 14>  H        0.8642446103     1.9586391622     0.4531413343
| 15>  H       -0.0696480896     1.9281976984    -1.0564302471
| 16>  H       -0.8879398561     1.9012984634     0.5188554094
| 17>  H       -0.0396421413    -0.2330325146    -2.1634722917
| 18>  H       -0.0006973189    -2.3887587630    -3.0227457487
| 19>  H        0.1657027878    -3.7987813925     0.2133229272
| 20>  H        0.1669572748    -0.6356416991     3.0366365141
| 21> *
| 22>
| 23>                          ****END OF INPUT****

CARTESIAN COORDINATES (ANGSTROEM)
---------------------------------
  C     -0.018575    1.535207   -0.037774
  C      0.030636    0.032740   -0.036585
  C      0.012564   -0.729237   -1.196413
  C      0.060842   -2.124900   -1.130100
  O      0.046451   -2.933514   -2.230838
  C      0.126910   -2.717396    0.124506
  N      0.145377   -2.002474    1.254992
  C      0.098891   -0.684380    1.170656
  O      0.119202    0.022568    2.330169
  H      0.864245    1.958639    0.453141
  H     -0.069648    1.928198   -1.056430
  H     -0.887940    1.901298    0.518855
  H     -0.039642   -0.233033   -2.163472
  H     -0.000697   -2.388759   -3.022746
  H      0.165703   -3.798781    0.213323
  H      0.166957   -0.635642    3.036637

 Total Charge           Charge          ....    0
 Multiplicity           Mult            ....    1
 Number of Electrons    NEL             ....   66
 Basis Dimension        Dim             ....  321

ORBITAL ENERGIES
----------------

  NO   OCC          E(Eh)            E(eV)
   0   2.0000     -20.591618      -560.3264
   1   2.0000     -20.586748      -560.1939
   2   2.0000     -15.565735      -423.5652
   3   2.0000     -11.327195      -308.2286
   4   2.0000     -11.298191      -307.4394
   5   2.0000     -11.267683      -306.6092
   6   2.0000     -11.257348      -306.3280
   7   2.0000     -11.251272      -306.1627
   8   2.0000     -11.230799      -305.6056
   9   2.0000      -1.417074       -38.5606
  10   2.0000      -1.408565       -38.3290
  11   2.0000      -1.250238       -34.0207
  12   2.0000      -1.104848       -30.0645
  13   2.0000      -1.030099       -28.0304
  14   2.0000      -0.953162       -25.9369
  15   2.0000      -0.880076       -23.9481
  16   2.0000      -0.831486       -22.6259
  17   2.0000      -0.758380       -20.6366
  18   2.0000      -0.730519       -19.8784
  19   2.0000      -0.691749       -18.8235
  20   2.0000      -0.636957       -17.3325
  21   2.0000      -0.623228       -16.9589
  22   2.0000      -0.599231       -16.3059
  23   2.0000      -0.589206       -16.0331
  24   2.0000      -0.585539       -15.9333
  25   2.0000      -0.572928       -15.5902
  26   2.0000      -0.562227       -15.2990
  27   2.0000      -0.555923       -15.1274
  28   2.0000      -0.523542       -14.2463
  29   2.0000      -0.489724       -13.3261
  30   2.0000      -0.431543       -11.7429
  31   2.0000      -0.379758       -10.3337
  32   2.0000      -0.303815        -8.2672
  33   0.0000       0.101979         2.7750
  34   0.0000       0.129258         3.5173
  35   0.0000       0.144792         3.9400
  36   0.0000       0.151438         4.1208
  37   0.0000       0.169531         4.6132

MULLIKEN ATOMIC CHARGES
-----------------------
   0 C :   -0.390099
   1 C :    0.017533
   2 C :   -0.231586
   3 C :    0.247517
   4 O :   -0.425567
   5 C :   -0.090514
   6 N :   -0.287220
   7 C :    0.242756
   8 O :   -0.427088
   9 H :    0.150193
  10 H :    0.129003
  11 H :    0.150201
  12 H :    0.118192
  13 H :    0.329768
  14 H :    0.134476
  15 H :    0.332437
Sum of atomic charges:   -0.0000000

LOEWDIN ATOMIC CHARGES
----------------------
   0 C :   -0.257845
   1 C :   -0.153489
   2 C :   -0.111956
   3 C :   -0.286131
   4 O :    0.067536
   5 C :   -0.197139
   6 N :    0.133725
   7 C :   -0.347570
   8 O :    0.072601
   9 H :    0.137471
  10 H :    0.127504
  11 H :    0.137471
  12 H :    0.148679
  13 H :    0.190244
  14 H :    0.143814
  15 H :    0.195084

  Mayer bond orders larger than 0.1
B(  0-C ,  1-C ) :   0.8841 B(  0-C ,  9-H ) :   0.9242 B(  0-C , 10-H ) :   0.9440
B(  0-C , 11-H ) :   0.9242 B(  1-C ,  2-C ) :   1.3916 B(  1-C ,  7-C ) :   1.2918
B(  2-C ,  3-C ) :   1.2853 B(  2-C , 12-H ) :   0.8992 B(  3-C ,  4-O ) :   1.0937
B(  3-C ,  5-C ) :   1.3116 B(  4-O , 13-H ) :   0.8338 B(  5-C ,  6-N ) :   1.3775
B(  5-C , 14-H ) :   0.9430 B(  6-N ,  7-C ) :   1.3950 B(  7-C ,  8-O ) :   1.1347
B(  8-O , 15-H ) :   0.8154

MP2 TOTAL ENERGY:     -437.234523266 Eh
FINAL SINGLE POINT ENERGY      -437.234523265944

DIPOLE MOMENT
-------------
                                X             Y             Z
Electronic contribution:      0.21833      -5.16935       1.32444
Nuclear contribution   :     -0.26521       5.73210      -2.09055
                        -----------------------------------------
Total Dipole Moment    :     -0.04688       0.56275      -0.76610
                        -----------------------------------------
Magnitude (a.u.)       :      0.95173
Magnitude (Debye)      :      2.41911

                             ****ORCA TERMINATED NORMALLY****
TOTAL RUN TIME: 0 days 0 hours 15 minutes 27 seconds 570 msec
