                         Program Version 3.0.3 - RELEASE   -
|  1> ! RI-MP2 RIJK def2-TZVP def2-TZVP/C def2-TZVP/JK TIGHTSCF
|  2> % maxcore 2000
|  3> % mp2 density relaxed end
|  4> *xyz 0 1
|  5>  C       -0.0975154667     1.5791770771    -0.3298419944
|  6>  C        0.0060455294     0.0778461060    -0.0953746602
|  7>  C        1.0775069957    -0.6891561246    -0.8878132071
|  8>  O        2.3565101277    -0.2094473760    -0.4515529757
|  9>  C        1.6980615247    -1.2099860974     0.3377974415
| 10>  C        0.6825765759    -0.4781496134     1.2337349160
| 11>  C        1.2522159509     0.4861335541     2.2352613232
| 12>  C        0.4829525130     0.9432821150     3.4002006136
| 13>  O        1.5021172485    -0.0441835347     3.5454544126
| 14>  H        0.8898681602     2.0473373192    -0.3022010862
| 15>  H       -0.5415086953     1.7857626388    -1.3097382351
| 16>  H       -0.7266721399     2.0583091061     0.4270529901
| 17>  H       -0.9721384489    -0.3980953216    -0.2178885951
| 18>  H        1.0241848250    -1.1050971946    -1.8875566129
| 19>  H        2.2410651870    -2.1282590770     0.5277970937
| 20>  H        0.0154477263    -1.1759135941     1.7473871059
| 21>  H        2.0473375012     1.1294958805     1.8620859071
| 22>  H        0.6997844146     1.9129952639     3.8464247484
| 23>  H       -0.5368706793     0.5864897528     3.5445171647
| 24> *
| 25>
| 26>                          ****END OF INPUT****

CARTESIAN COORDINATES (ANGSTROEM)
---------------------------------
  C     -0.097515    1.579177   -0.329842
  C      0.006046    0.077846   -0.095375
  C      1.077507   -0.689156   -0.887813
  O      2.356510   -0.209447   -0.451553
  C      1.698062   -1.209986    0.337797
  C      0.682577   -0.478150    1.233735
  C      1.252216    0.486134    2.235261
  C      0.482953    0.943282    3.400201
  O      1.502117   -0.044184    3.545454
  H      0.889868    2.047337   -0.302201
  H     -0.541509    1.785763   -1.309738
  H     -0.726672    2.058309    0.427053
  H     -0.972138   -0.398095   -0.217889
  H      1.024185   -1.105097   -1.887557
  H      2.241065   -2.128259    0.527797
  H      0.015448   -1.175914    1.747387
  H      2.047338    1.129496    1.862086
  H      0.699784    1.912995    3.846425
  H     -0.536871    0.586490    3.544517

 Total Charge           Charge          ....    0
 Multiplicity           Mult            ....    1
 Number of Electrons    NEL             ....   68
 Basis Dimension        Dim             ....  339

ORBITAL ENERGIES
----------------

  NO   OCC          E(Eh)            E(eV)
   0   2.0000     -20.570798      -559.7599
   1   2.0000     -20.565860      -559.6255
   2   2.0000     -11.288725      -307.1818
   3   2.0000     -11.287775      -307.1560
   4   2.0000     -11.284395      -307.0640
   5   2.0000     -11.282167      -307.0034
   6   2.0000     -11.248728      -306.0935
   7   2.0000     -11.246231      -306.0255
   8   2.0000     -11.220899      -305.3362
   9   2.0000      -1.421673       -38.6857
  10   2.0000      -1.407825       -38.3089
  11   2.0000      -1.106835       -30.1185
  12   2.0000      -0.992709       -27.0130
  13   2.0000      -0.947512       -25.7831
  14   2.0000      -0.900789       -24.5117
  15   2.0000      -0.850951       -23.1556
  16   2.0000      -0.819424       -22.2977
  17   2.0000      -0.754699       -20.5364
  18   2.0000      -0.726568       -19.7709
  19   2.0000      -0.676844       -18.4179
  20   2.0000      -0.650576       -17.7031
  21   2.0000      -0.633991       -17.2518
  22   2.0000      -0.596777       -16.2391
  23   2.0000      -0.573722       -15.6118
  24   2.0000      -0.560520       -15.2525
  25   2.0000      -0.545930       -14.8555
  26   2.0000      -0.538357       -14.6494
  27   2.0000      -0.501576       -13.6486
  28   2.0000      -0.494245       -13.4491
  29   2.0000      -0.481839       -13.1115
  30   2.0000      -0.455928       -12.4064
  31   2.0000      -0.443954       -12.0806
  32   2.0000      -0.418667       -11.3925
  33   2.0000      -0.402114       -10.9421
  34   0.0000       0.132684         3.6105
  35   0.0000       0.152060         4.1378
  36   0.0000       0.167827         4.5668
  37   0.0000       0.177836         4.8392
  38   0.0000       0.185231         5.0404

MULLIKEN ATOMIC CHARGES
-----------------------
   0 C :   -0.433422
   1 C :   -0.021473
   2 C :   -0.029689
   3 O :   -0.337797
   4 C :   -0.012591
   5 C :   -0.041231
   6 C :   -0.030970
   7 C :   -0.071885
   8 O :   -0.330666
   9 H :    0.148397
  10 H :    0.134140
  11 H :    0.131855
  12 H :    0.104413
  13 H :    0.137913
  14 H :    0.143182
  15 H :    0.125928
  16 H :    0.153870
  17 H :    0.117811
  18 H :    0.112215
Sum of atomic charges:   -0.0000000

LOEWDIN ATOMIC CHARGES
----------------------
   0 C :   -0.295096
   1 C :   -0.206293
   2 C :   -0.225089
   3 O :    0.172876
   4 C :   -0.214796
   5 C :   -0.177508
   6 C :   -0.268043
   7 C :   -0.269717
   8 O :    0.143825
   9 H :    0.129945
  10 H :    0.126097
  11 H :    0.124944
  12 H :    0.152225
  13 H :    0.130033
  14 H :    0.132216
  15 H :    0.160504
  16 H :    0.145385
  17 H :    0.119209
  18 H :    0.119282

  Mayer bond orders larger than 0.1
B(  0-C ,  1-C ) :   0.8898 B(  0-C ,  9-H ) :   0.9397 B(  0-C , 10-H ) :   0.9342
B(  0-C , 11-H ) :   0.9378 B(  1-C ,  2-C ) :   0.8970 B(  1-C ,  5-C ) :   0.9377
B(  1-C , 12-H ) :   0.9086 B(  2-C ,  3-O ) :   0.9205 B(  2-C ,  4-C ) :   0.8835
B(  2-C , 13-H ) :   0.9262 B(  3-O ,  4-C ) :   0.8921 B(  4-C ,  5-C ) :   0.8759
B(  4-C , 14-H ) :   0.9290 B(  5-C ,  6-C ) :   0.8704 B(  5-C , 15-H ) :   0.9143
B(  6-C ,  7-C ) :   0.9778 B(  6-C ,  8-O ) :   0.8849 B(  6-C , 16-H ) :   0.9196
B(  7-C ,  8-O ) :   0.9138 B(  7-C , 17-H ) :   0.9188 B(  7-C , 18-H ) :   0.9102

MP2 TOTAL ENERGY:     -422.251077915 Eh
FINAL SINGLE POINT ENERGY      -422.251077915103

DIPOLE MOMENT
-------------
                                X             Y             Z
Electronic contribution:      4.54108      -3.69940       1.41346
Nuclear contribution   :     -5.54668       3.73078      -1.81907
                        -----------------------------------------
Total Dipole Moment    :     -1.00560       0.03139      -0.40561
                        -----------------------------------------
Magnitude (a.u.)       :      1.08477
Magnitude (Debye)      :      2.75727

                             ****ORCA TERMINATED NORMALLY****
TOTAL RUN TIME: 0 days 0 hours 16 minutes 5 seconds 819 msec
