                         Program Version 3.0.3 - RELEASE   -
|  1> ! RI-MP2 RIJK def2-TZVP def2-TZVP/C def2-TZVP/JK TIGHTSCF
|  2> % maxcore 2000
|  3> % mp2 density relaxed end
|  4> *xyz 0 1
|  5>  C       -0.0636510141     1.5177605895     0.0775877525
|  6>  C       -0.0112138666     0.0187150605     0.0144146756
|  7>  C        0.1015298300    -0.6385359606    -1.2068493406
|  8>  O        0.1672400828     0.0564494915    -2.3731250988
|  9>  C        0.1427099495    -2.0357082200    -1.1648937001
| 10>  O        0.2521410447    -2.6883420976    -2.3452594147
| 11>  N        0.0801674892    -2.7261997843    -0.0418736509
| 12>  C       -0.0271067342    -2.0011651761     1.0784720968
| 13>  N       -0.0755064969    -0.6794443966     1.1637397034
| 14>  H        0.8366435219     1.9593634776    -0.3633313375
| 15>  H       -0.9133747430     1.9037385766    -0.4959409767
| 16>  H       -0.1524449957     1.8353831342     1.1166817099
| 17>  H        0.2410552825    -0.5794197033    -3.0955642817
| 18>  H        0.2667387542    -3.6337024238    -2.1418956712
| 19>  H       -0.0793802242    -2.5589116777     2.0092475840
| 20> *
| 21>
| 22>                          ****END OF INPUT****

CARTESIAN COORDINATES (ANGSTROEM)
---------------------------------
  C     -0.063651    1.517761    0.077588
  C     -0.011214    0.018715    0.014415
  C      0.101530   -0.638536   -1.206849
  O      0.167240    0.056449   -2.373125
  C      0.142710   -2.035708   -1.164894
  O      0.252141   -2.688342   -2.345259
  N      0.080167   -2.726200   -0.041874
  C     -0.027107   -2.001165    1.078472
  N     -0.075506   -0.679444    1.163740
  H      0.836644    1.959363   -0.363331
  H     -0.913375    1.903739   -0.495941
  H     -0.152445    1.835383    1.116682
  H      0.241055   -0.579420   -3.095564
  H      0.266739   -3.633702   -2.141896
  H     -0.079380   -2.558912    2.009248

 Total Charge           Charge          ....    0
 Multiplicity           Mult            ....    1
 Number of Electrons    NEL             ....   66
 Basis Dimension        Dim             ....  315

ORBITAL ENERGIES
----------------

  NO   OCC          E(Eh)            E(eV)
   0   2.0000     -20.620509      -561.1126
   1   2.0000     -20.596913      -560.4705
   2   2.0000     -15.574363      -423.8000
   3   2.0000     -15.563733      -423.5107
   4   2.0000     -11.358805      -309.0888
   5   2.0000     -11.311259      -307.7950
   6   2.0000     -11.302173      -307.5478
   7   2.0000     -11.297637      -307.4243
   8   2.0000     -11.228416      -305.5407
   9   2.0000      -1.455024       -39.5932
  10   2.0000      -1.410778       -38.3892
  11   2.0000      -1.307419       -35.5767
  12   2.0000      -1.195186       -32.5227
  13   2.0000      -1.068796       -29.0834
  14   2.0000      -0.987471       -26.8705
  15   2.0000      -0.890928       -24.2434
  16   2.0000      -0.871246       -23.7078
  17   2.0000      -0.781381       -21.2625
  18   2.0000      -0.747341       -20.3362
  19   2.0000      -0.703190       -19.1348
  20   2.0000      -0.667556       -18.1651
  21   2.0000      -0.653961       -17.7952
  22   2.0000      -0.614439       -16.7197
  23   2.0000      -0.595727       -16.2106
  24   2.0000      -0.594153       -16.1677
  25   2.0000      -0.565124       -15.3778
  26   2.0000      -0.556502       -15.1432
  27   2.0000      -0.547823       -14.9070
  28   2.0000      -0.533867       -14.5273
  29   2.0000      -0.485639       -13.2149
  30   2.0000      -0.420031       -11.4296
  31   2.0000      -0.407413       -11.0863
  32   2.0000      -0.334771        -9.1096
  33   0.0000       0.110288         3.0011
  34   0.0000       0.130670         3.5557
  35   0.0000       0.130832         3.5601
  36   0.0000       0.154557         4.2057
  37   0.0000       0.175074         4.7640

MULLIKEN ATOMIC CHARGES
-----------------------
   0 C :   -0.399893
   1 C :    0.108041
   2 C :    0.111368
   3 O :   -0.426099
   4 C :    0.267277
   5 O :   -0.455896
   6 N :   -0.278520
   7 C :    0.056631
   8 N :   -0.263035
   9 H :    0.144316
  10 H :    0.144321
  11 H :    0.157128
  12 H :    0.350000
  13 H :    0.348753
  14 H :    0.135610
Sum of atomic charges:   -0.0000000

LOEWDIN ATOMIC CHARGES
----------------------
   0 C :   -0.259418
   1 C :   -0.221188
   2 C :   -0.235303
   3 O :    0.090283
   4 C :   -0.361442
   5 O :    0.072189
   6 N :    0.125228
   7 C :   -0.303267
   8 N :    0.143380
   9 H :    0.137117
  10 H :    0.137112
  11 H :    0.135822
  12 H :    0.201339
  13 H :    0.204138
  14 H :    0.134010

  Mayer bond orders larger than 0.1
B(  0-C ,  1-C ) :   0.9115 B(  0-C ,  9-H ) :   0.9214 B(  0-C , 10-H ) :   0.9214
B(  0-C , 11-H ) :   0.9484 B(  1-C ,  2-C ) :   1.3311 B(  1-C ,  8-N ) :   1.3681
B(  2-C ,  3-O ) :   1.1477 B(  2-C ,  4-C ) :   1.2330 B(  3-O , 12-H ) :   0.8154
B(  4-C ,  5-O ) :   1.0902 B(  4-C ,  6-N ) :   1.4033 B(  5-O , 13-H ) :   0.8091
B(  6-N ,  7-C ) :   1.3416 B(  7-C ,  8-N ) :   1.4317 B(  7-C , 14-H ) :   0.9382

MP2 TOTAL ENERGY:     -453.280629553 Eh
FINAL SINGLE POINT ENERGY      -453.280629553073

DIPOLE MOMENT
-------------
                                X             Y             Z
Electronic contribution:      0.26495      -5.02204      -1.39700
Nuclear contribution   :     -0.19728       4.71626       0.61981
                        -----------------------------------------
Total Dipole Moment    :      0.06767      -0.30579      -0.77720
                        -----------------------------------------
Magnitude (a.u.)       :      0.83792
Magnitude (Debye)      :      2.12983

                             ****ORCA TERMINATED NORMALLY****
TOTAL RUN TIME: 0 days 0 hours 14 minutes 17 seconds 472 msec
