                         Program Version 3.0.3 - RELEASE   -
|  1> ! RI-MP2 RIJK def2-TZVP def2-TZVP/C def2-TZVP/JK TIGHTSCF
|  2> % maxcore 2000
|  3> % mp2 density relaxed end
|  4> *xyz 0 1
|  5>  C       -0.4288354458     0.9439631294    -0.1542821919
|  6>  O        0.6146356966     0.0091287552     0.0738244499
|  7>  C        1.0132602893    -0.6525872247    -1.0703461300
|  8>  C        1.4538621078    -2.0777483181    -0.9745764271
|  9>  C        0.5234436395    -2.8179142558    -0.0204590937
| 10>  O       -0.6604447657    -2.3637154837    -0.7305720919
| 11>  C        0.1478015591    -1.7191387226    -1.7198378746
| 12>  C       -0.2351953410    -1.7586226025    -3.0856109692
| 13>  C       -0.5573655704    -1.7710056977    -4.2452167251
| 14>  H       -0.1236206511     1.7200812067    -0.8708932403
| 15>  H       -1.3303595064     0.4448280351    -0.5299309638
| 16>  H       -0.6475997155     1.4137859172     0.8068377951
| 17>  H        1.5663353908    -0.0518090677    -1.7957452112
| 18>  H        2.3980318190    -2.4408202253    -1.3570078411
| 19>  H        0.6113833629    -3.9067235172    -0.0884251568
| 20>  H        0.5269853179    -2.4936500814     1.0235083274
| 21>  H       -0.8442988669    -1.7888539169    -5.2675118159
| 22> *
| 23>
| 24>                          ****END OF INPUT****

CARTESIAN COORDINATES (ANGSTROEM)
---------------------------------
  C     -0.428835    0.943963   -0.154282
  O      0.614636    0.009129    0.073824
  C      1.013260   -0.652587   -1.070346
  C      1.453862   -2.077748   -0.974576
  C      0.523444   -2.817914   -0.020459
  O     -0.660445   -2.363715   -0.730572
  C      0.147802   -1.719139   -1.719838
  C     -0.235195   -1.758623   -3.085611
  C     -0.557366   -1.771006   -4.245217
  H     -0.123621    1.720081   -0.870893
  H     -1.330360    0.444828   -0.529931
  H     -0.647600    1.413786    0.806838
  H      1.566335   -0.051809   -1.795745
  H      2.398032   -2.440820   -1.357008
  H      0.611383   -3.906724   -0.088425
  H      0.526985   -2.493650    1.023508
  H     -0.844299   -1.788854   -5.267512

 Total Charge           Charge          ....    0
 Multiplicity           Mult            ....    1
 Number of Electrons    NEL             ....   66
 Basis Dimension        Dim             ....  327

ORBITAL ENERGIES
----------------

  NO   OCC          E(Eh)            E(eV)
   0   2.0000     -20.569135      -559.7146
   1   2.0000     -20.565065      -559.6039
   2   2.0000     -11.318900      -308.0029
   3   2.0000     -11.302034      -307.5440
   4   2.0000     -11.290169      -307.2211
   5   2.0000     -11.273282      -306.7616
   6   2.0000     -11.254022      -306.2375
   7   2.0000     -11.244258      -305.9718
   8   2.0000     -11.236633      -305.7643
   9   2.0000      -1.415769       -38.5250
  10   2.0000      -1.379826       -37.5470
  11   2.0000      -1.128703       -30.7136
  12   2.0000      -1.046009       -28.4634
  13   2.0000      -0.959801       -26.1175
  14   2.0000      -0.940232       -25.5850
  15   2.0000      -0.839012       -22.8307
  16   2.0000      -0.795545       -21.6479
  17   2.0000      -0.746014       -20.3001
  18   2.0000      -0.710021       -19.3206
  19   2.0000      -0.684357       -18.6223
  20   2.0000      -0.670144       -18.2355
  21   2.0000      -0.638470       -17.3737
  22   2.0000      -0.619216       -16.8497
  23   2.0000      -0.598702       -16.2915
  24   2.0000      -0.569579       -15.4990
  25   2.0000      -0.526490       -14.3265
  26   2.0000      -0.505494       -13.7552
  27   2.0000      -0.494668       -13.4606
  28   2.0000      -0.463686       -12.6175
  29   2.0000      -0.446331       -12.1453
  30   2.0000      -0.426077       -11.5941
  31   2.0000      -0.396633       -10.7929
  32   2.0000      -0.349812        -9.5189
  33   0.0000       0.137133         3.7316
  34   0.0000       0.147140         4.0039
  35   0.0000       0.155970         4.2441
  36   0.0000       0.163882         4.4594
  37   0.0000       0.171972         4.6796

MULLIKEN ATOMIC CHARGES
-----------------------
   0 C :   -0.213790
   1 O :   -0.299960
   2 C :    0.013633
   3 C :   -0.160111
   4 C :   -0.022129
   5 O :   -0.325357
   6 C :   -0.033787
   7 C :    0.014192
   8 C :   -0.062767
   9 H :    0.112730
  10 H :    0.137294
  11 H :    0.139584
  12 H :    0.116400
  13 H :    0.151029
  14 H :    0.115229
  15 H :    0.120218
  16 H :    0.197593
Sum of atomic charges:   -0.0000000

LOEWDIN ATOMIC CHARGES
----------------------
   0 C :   -0.333189
   1 O :    0.183905
   2 C :   -0.271146
   3 C :   -0.136889
   4 C :   -0.230719
   5 O :    0.183851
   6 C :   -0.260775
   7 C :   -0.070558
   8 C :   -0.067920
   9 H :    0.104120
  10 H :    0.111207
  11 H :    0.114042
  12 H :    0.150454
  13 H :    0.141765
  14 H :    0.126907
  15 H :    0.125799
  16 H :    0.129147

  Mayer bond orders larger than 0.1
B(  0-C ,  1-O ) :   0.8839 B(  0-C ,  9-H ) :   0.9330 B(  0-C , 10-H ) :   0.9329
B(  0-C , 11-H ) :   0.9405 B(  1-O ,  2-C ) :   1.0099 B(  2-C ,  3-C ) :   0.9012
B(  2-C ,  6-C ) :   0.8649 B(  2-C , 12-H ) :   0.9448 B(  3-C ,  4-C ) :   0.9700
B(  3-C ,  6-C ) :   0.8104 B(  3-C , 13-H ) :   0.8987 B(  4-C ,  5-O ) :   0.9165
B(  4-C , 14-H ) :   0.9167 B(  4-C , 15-H ) :   0.9111 B(  5-O ,  6-C ) :   0.9807
B(  6-C ,  7-C ) :   1.2077 B(  6-C ,  8-C ) :  -0.1867 B(  7-C ,  8-C ) :   2.6058
B(  8-C , 16-H ) :   0.8714

MP2 TOTAL ENERGY:     -421.008427241 Eh
FINAL SINGLE POINT ENERGY      -421.008427240858

DIPOLE MOMENT
-------------
                                X             Y             Z
Electronic contribution:     -0.07704      -3.02372      -2.09085
Nuclear contribution   :      0.53780       3.20562       1.75925
                        -----------------------------------------
Total Dipole Moment    :      0.46076       0.18190      -0.33159
                        -----------------------------------------
Magnitude (a.u.)       :      0.59611
Magnitude (Debye)      :      1.51519

                             ****ORCA TERMINATED NORMALLY****
TOTAL RUN TIME: 0 days 0 hours 26 minutes 59 seconds 166 msec
