                         Program Version 3.0.3 - RELEASE   -
|  1> ! RI-MP2 RIJK def2-TZVP def2-TZVP/C def2-TZVP/JK TIGHTSCF
|  2> % maxcore 2000
|  3> % mp2 density relaxed end
|  4> *xyz 0 1
|  5>  C       -0.0131276895     1.3029835049     0.0098023310
|  6>  C        1.1840756110     2.0161220565     0.0017998571
|  7>  N        2.3712902603     1.4071747369    -0.0130311494
|  8>  C        2.3412924155     0.0731681362    -0.0197295035
|  9>  C        1.1440902337    -0.6399699239    -0.0117335292
| 10>  N       -0.0431257959    -0.0310220696     0.0031011054
| 11>  H       -0.9696466206     1.8195305987     0.0218948816
| 12>  H        1.1854464402     3.1032564599     0.0074803413
| 13>  H        3.2978119777    -0.4433776558    -0.0318094949
| 14>  H        1.1427176776    -1.7271041139    -0.0174249395
| 15> *
| 16>
| 17>                          ****END OF INPUT****

CARTESIAN COORDINATES (ANGSTROEM)
---------------------------------
  C     -0.013128    1.302984    0.009802
  C      1.184076    2.016122    0.001800
  N      2.371290    1.407175   -0.013031
  C      2.341292    0.073168   -0.019730
  C      1.144090   -0.639970   -0.011734
  N     -0.043126   -0.031022    0.003101
  H     -0.969647    1.819531    0.021895
  H      1.185446    3.103256    0.007480
  H      3.297812   -0.443378   -0.031809
  H      1.142718   -1.727104   -0.017425

 Total Charge           Charge          ....    0
 Multiplicity           Mult            ....    1
 Number of Electrons    NEL             ....   42
 Basis Dimension        Dim             ....  210

ORBITAL ENERGIES
----------------

  NO   OCC          E(Eh)            E(eV)
   0   2.0000     -15.593136      -424.3108
   1   2.0000     -15.593120      -424.3104
   2   2.0000     -11.284505      -307.0670
   3   2.0000     -11.284462      -307.0658
   4   2.0000     -11.283263      -307.0332
   5   2.0000     -11.283254      -307.0330
   6   2.0000      -1.308953       -35.6184
   7   2.0000      -1.220519       -33.2120
   8   2.0000      -1.053911       -28.6784
   9   2.0000      -0.902019       -24.5452
  10   2.0000      -0.889348       -24.2004
  11   2.0000      -0.727647       -19.8003
  12   2.0000      -0.705882       -19.2080
  13   2.0000      -0.676934       -18.4203
  14   2.0000      -0.610685       -16.6176
  15   2.0000      -0.576503       -15.6875
  16   2.0000      -0.552096       -15.0233
  17   2.0000      -0.500424       -13.6172
  18   2.0000      -0.437550       -11.9063
  19   2.0000      -0.412542       -11.2258
  20   2.0000      -0.359977        -9.7955
  21   0.0000       0.079758         2.1703
  22   0.0000       0.110314         3.0018
  23   0.0000       0.164632         4.4799
  24   0.0000       0.173003         4.7076
  25   0.0000       0.191395         5.2081

MULLIKEN ATOMIC CHARGES
-----------------------
   0 C :   -0.014855
   1 C :   -0.014855
   2 N :   -0.250530
   3 C :   -0.014855
   4 C :   -0.014855
   5 N :   -0.250530
   6 H :    0.140120
   7 H :    0.140120
   8 H :    0.140121
   9 H :    0.140120
Sum of atomic charges:    0.0000000

LOEWDIN ATOMIC CHARGES
----------------------
   0 C :   -0.212381
   1 C :   -0.212381
   2 N :    0.140671
   3 C :   -0.212381
   4 C :   -0.212380
   5 N :    0.140671
   6 H :    0.142045
   7 H :    0.142045
   8 H :    0.142045
   9 H :    0.142045

  Mayer bond orders larger than 0.1
B(  0-C ,  1-C ) :   1.3112 B(  0-C ,  5-N ) :   1.3795 B(  0-C ,  6-H ) :   0.9291
B(  1-C ,  2-N ) :   1.3795 B(  1-C ,  7-H ) :   0.9291 B(  2-N ,  3-C ) :   1.3795
B(  3-C ,  4-C ) :   1.3112 B(  3-C ,  8-H ) :   0.9291 B(  4-C ,  5-N ) :   1.3795
B(  4-C ,  9-H ) :   0.9291

MP2 TOTAL ENERGY:     -263.780710454 Eh
FINAL SINGLE POINT ENERGY      -263.780710453571

DIPOLE MOMENT
-------------
                                X             Y             Z
Electronic contribution:      0.00000      -0.00000      -0.00000
Nuclear contribution   :     -0.00000       0.00000       0.00000
                        -----------------------------------------
Total Dipole Moment    :     -0.00000       0.00000       0.00000
                        -----------------------------------------
Magnitude (a.u.)       :      0.00000
Magnitude (Debye)      :      0.00000

                             ****ORCA TERMINATED NORMALLY****
TOTAL RUN TIME: 0 days 0 hours 3 minutes 36 seconds 629 msec
