                         Program Version 3.0.3 - RELEASE   -
|  1> ! RI-MP2 RIJK def2-TZVP def2-TZVP/C def2-TZVP/JK TIGHTSCF
|  2> % maxcore 2000
|  3> % mp2 density relaxed end
|  4> *xyz 0 1
|  5>  C        0.0656128103     1.4732986168    -0.1952504125
|  6>  C        0.1091189621    -0.0101589406     0.0868654654
|  7>  N        1.4315549508    -0.6534049505     0.1797776140
|  8>  C        0.5452420168    -0.6404303433     1.3658108708
|  9>  C        1.1307743966     0.1512288309     2.5191660065
| 10>  O        2.2642004522    -0.5353324410     3.0604518415
| 11>  C       -0.0789632275    -1.9636056393     1.7784759926
| 12>  O        0.8867791241    -2.8977149862     2.2287485115
| 13>  H        0.8985302371     1.9995159308     0.2749856198
| 14>  H        0.1317247478     1.6506902031    -1.2738954220
| 15>  H       -0.8728693911     1.9123093455     0.1600501131
| 16>  H       -0.6601846723    -0.5729122885    -0.4428650840
| 17>  H        1.4231656271    -1.5791695541    -0.2422347893
| 18>  H        1.4116386405     1.1630642935     2.2068789017
| 19>  H        0.4107821964     0.2362830307     3.3395001097
| 20>  H        2.8841972630    -0.6232507711     2.3243814037
| 21>  H       -0.8488703213    -1.7790341263     2.5472064703
| 22>  H       -0.5827962348    -2.4247214867     0.9205565536
| 23>  H        1.4668657123    -2.4155352438     2.8358490236
| 24> *
| 25>
| 26>                          ****END OF INPUT****

CARTESIAN COORDINATES (ANGSTROEM)
---------------------------------
  C      0.065613    1.473299   -0.195250
  C      0.109119   -0.010159    0.086865
  N      1.431555   -0.653405    0.179778
  C      0.545242   -0.640430    1.365811
  C      1.130774    0.151229    2.519166
  O      2.264200   -0.535332    3.060452
  C     -0.078963   -1.963606    1.778476
  O      0.886779   -2.897715    2.228749
  H      0.898530    1.999516    0.274986
  H      0.131725    1.650690   -1.273895
  H     -0.872869    1.912309    0.160050
  H     -0.660185   -0.572912   -0.442865
  H      1.423166   -1.579170   -0.242235
  H      1.411639    1.163064    2.206879
  H      0.410782    0.236283    3.339500
  H      2.884197   -0.623251    2.324381
  H     -0.848870   -1.779034    2.547206
  H     -0.582796   -2.424721    0.920557
  H      1.466866   -2.415535    2.835849

 Total Charge           Charge          ....    0
 Multiplicity           Mult            ....    1
 Number of Electrons    NEL             ....   64
 Basis Dimension        Dim             ....  314

ORBITAL ENERGIES
----------------

  NO   OCC          E(Eh)            E(eV)
   0   2.0000     -20.567840      -559.6794
   1   2.0000     -20.546525      -559.0994
   2   2.0000     -15.563888      -423.5149
   3   2.0000     -11.286077      -307.1098
   4   2.0000     -11.282145      -307.0028
   5   2.0000     -11.275983      -306.8351
   6   2.0000     -11.269380      -306.6554
   7   2.0000     -11.228674      -305.5478
   8   2.0000      -1.376301       -37.4511
   9   2.0000      -1.351485       -36.7758
  10   2.0000      -1.271278       -34.5932
  11   2.0000      -1.004216       -27.3261
  12   2.0000      -0.999556       -27.1993
  13   2.0000      -0.926040       -25.1988
  14   2.0000      -0.839783       -22.8517
  15   2.0000      -0.782421       -21.2907
  16   2.0000      -0.727966       -19.8090
  17   2.0000      -0.680576       -18.5194
  18   2.0000      -0.666951       -18.1486
  19   2.0000      -0.642410       -17.4809
  20   2.0000      -0.610008       -16.5992
  21   2.0000      -0.589832       -16.0501
  22   2.0000      -0.582626       -15.8541
  23   2.0000      -0.573935       -15.6176
  24   2.0000      -0.547728       -14.9044
  25   2.0000      -0.538531       -14.6542
  26   2.0000      -0.521384       -14.1876
  27   2.0000      -0.472895       -12.8681
  28   2.0000      -0.466574       -12.6961
  29   2.0000      -0.449013       -12.2183
  30   2.0000      -0.432543       -11.7701
  31   2.0000      -0.399383       -10.8678
  32   0.0000       0.131746         3.5850
  33   0.0000       0.151167         4.1135
  34   0.0000       0.158971         4.3258
  35   0.0000       0.168002         4.5716
  36   0.0000       0.196829         5.3560

MULLIKEN ATOMIC CHARGES
-----------------------
   0 C :   -0.394434
   1 C :   -0.056467
   2 N :   -0.405331
   3 C :   -0.032288
   4 C :    0.013734
   5 O :   -0.498778
   6 C :    0.010707
   7 O :   -0.479774
   8 H :    0.134191
   9 H :    0.136491
  10 H :    0.130810
  11 H :    0.121494
  12 H :    0.229541
  13 H :    0.109696
  14 H :    0.113898
  15 H :    0.337695
  16 H :    0.099764
  17 H :    0.099542
  18 H :    0.329508
Sum of atomic charges:    0.0000000

LOEWDIN ATOMIC CHARGES
----------------------
   0 C :   -0.293500
   1 C :   -0.259387
   2 N :    0.019460
   3 C :   -0.317028
   4 C :   -0.292680
   5 O :   -0.051653
   6 C :   -0.316647
   7 O :   -0.051257
   8 H :    0.126005
   9 H :    0.129280
  10 H :    0.127559
  11 H :    0.141730
  12 H :    0.171307
  13 H :    0.124917
  14 H :    0.134579
  15 H :    0.182061
  16 H :    0.124083
  17 H :    0.130268
  18 H :    0.170902

  Mayer bond orders larger than 0.1
B(  0-C ,  1-C ) :   0.8783 B(  0-C ,  8-H ) :   0.9447 B(  0-C ,  9-H ) :   0.9320
B(  0-C , 10-H ) :   0.9328 B(  1-C ,  2-N ) :   0.9522 B(  1-C ,  3-C ) :   0.8940
B(  1-C , 11-H ) :   0.9209 B(  2-N ,  3-C ) :   0.8231 B(  2-N , 12-H ) :   0.8669
B(  3-C ,  4-C ) :   0.9450 B(  3-C ,  6-C ) :   0.9751 B(  4-C ,  5-O ) :   0.8664
B(  4-C , 13-H ) :   0.9204 B(  4-C , 14-H ) :   0.9306 B(  5-O , 15-H ) :   0.8255
B(  6-C ,  7-O ) :   0.9479 B(  6-C , 16-H ) :   0.9269 B(  6-C , 17-H ) :   0.9124
B(  7-O , 18-H ) :   0.8128

MP2 TOTAL ENERGY:     -401.532454494 Eh
FINAL SINGLE POINT ENERGY      -401.532454494176

DIPOLE MOMENT
-------------
                                X             Y             Z
Electronic contribution:      2.64444      -3.91499       2.27216
Nuclear contribution   :     -3.24749       4.59473      -2.77989
                        -----------------------------------------
Total Dipole Moment    :     -0.60305       0.67975      -0.50773
                        -----------------------------------------
Magnitude (a.u.)       :      1.04092
Magnitude (Debye)      :      2.64581

                             ****ORCA TERMINATED NORMALLY****
TOTAL RUN TIME: 0 days 0 hours 11 minutes 59 seconds 215 msec
