                         Program Version 3.0.3 - RELEASE   -
|  1> ! RI-MP2 RIJK def2-TZVP def2-TZVP/C def2-TZVP/JK TIGHTSCF
|  2> % maxcore 2000
|  3> % mp2 density relaxed end
|  4> *xyz 0 1
|  5>  N       -0.0785947953     1.2919818811    -0.3112209834
|  6>  C       -0.0242386995     0.0565521148    -0.0324391555
|  7>  N        1.1538332938    -0.6784146876     0.1488150945
|  8>  C        1.2910227358    -2.0156970945     0.4520670079
|  9>  O        2.3749836099    -2.5353847895     0.5840646091
| 10>  C        0.0049326072    -2.8054615592     0.6122223256
| 11>  N       -1.2056078492    -2.0366768858     0.4228918789
| 12>  C       -1.3335694828    -0.7102487544     0.1225052019
| 13>  O       -2.4074452560    -0.1717083615    -0.0132366077
| 14>  H        0.8524421933     1.7072216283    -0.3921295041
| 15>  H        2.0350535908    -0.1872283032     0.0502760040
| 16>  H        0.0609109782    -3.6369612468    -0.1016991383
| 17>  H        0.0375778633    -3.2510432833     1.6145062233
| 18>  H       -2.0899968393    -2.5152725484     0.5187154438
| 19> *
| 20>
| 21>                          ****END OF INPUT****

CARTESIAN COORDINATES (ANGSTROEM)
---------------------------------
  N     -0.078595    1.291982   -0.311221
  C     -0.024239    0.056552   -0.032439
  N      1.153833   -0.678415    0.148815
  C      1.291023   -2.015697    0.452067
  O      2.374984   -2.535385    0.584065
  C      0.004933   -2.805462    0.612222
  N     -1.205608   -2.036677    0.422892
  C     -1.333569   -0.710249    0.122505
  O     -2.407445   -0.171708   -0.013237
  H      0.852442    1.707222   -0.392130
  H      2.035054   -0.187228    0.050276
  H      0.060911   -3.636961   -0.101699
  H      0.037578   -3.251043    1.614506
  H     -2.089997   -2.515273    0.518715

 Total Charge           Charge          ....    0
 Multiplicity           Mult            ....    1
 Number of Electrons    NEL             ....   66
 Basis Dimension        Dim             ....  309

ORBITAL ENERGIES
----------------

  NO   OCC          E(Eh)            E(eV)
   0   2.0000     -20.561260      -559.5003
   1   2.0000     -20.541160      -558.9534
   2   2.0000     -15.641185      -425.6183
   3   2.0000     -15.618666      -425.0055
   4   2.0000     -15.576085      -423.8468
   5   2.0000     -11.399042      -310.1837
   6   2.0000     -11.383065      -309.7489
   7   2.0000     -11.360629      -309.1384
   8   2.0000     -11.319308      -308.0140
   9   2.0000      -1.433104       -38.9967
  10   2.0000      -1.411005       -38.3954
  11   2.0000      -1.317799       -35.8591
  12   2.0000      -1.266280       -34.4572
  13   2.0000      -1.203508       -32.7491
  14   2.0000      -1.032495       -28.0956
  15   2.0000      -0.947266       -25.7764
  16   2.0000      -0.876694       -23.8561
  17   2.0000      -0.779252       -21.2045
  18   2.0000      -0.761160       -20.7122
  19   2.0000      -0.734209       -19.9788
  20   2.0000      -0.695932       -18.9373
  21   2.0000      -0.682796       -18.5798
  22   2.0000      -0.659446       -17.9444
  23   2.0000      -0.629233       -17.1223
  24   2.0000      -0.613255       -16.6875
  25   2.0000      -0.605450       -16.4751
  26   2.0000      -0.594928       -16.1888
  27   2.0000      -0.509428       -13.8622
  28   2.0000      -0.487707       -13.2712
  29   2.0000      -0.461067       -12.5463
  30   2.0000      -0.451109       -12.2753
  31   2.0000      -0.423981       -11.5371
  32   2.0000      -0.405669       -11.0388
  33   0.0000       0.084492         2.2991
  34   0.0000       0.111518         3.0346
  35   0.0000       0.123540         3.3617
  36   0.0000       0.137077         3.7301
  37   0.0000       0.160209         4.3595

MULLIKEN ATOMIC CHARGES
-----------------------
   0 N :   -0.266847
   1 C :    0.062005
   2 N :   -0.272179
   3 C :    0.214876
   4 O :   -0.315220
   5 C :   -0.101119
   6 N :   -0.299920
   7 C :    0.259300
   8 O :   -0.296111
   9 H :    0.207145
  10 H :    0.243718
  11 H :    0.155167
  12 H :    0.155179
  13 H :    0.254005
Sum of atomic charges:   -0.0000000

LOEWDIN ATOMIC CHARGES
----------------------
   0 N :    0.000204
   1 C :   -0.317781
   2 N :    0.168339
   3 C :   -0.431152
   4 O :    0.119800
   5 C :   -0.237890
   6 N :    0.121628
   7 C :   -0.428389
   8 O :    0.131875
   9 H :    0.162895
  10 H :    0.203306
  11 H :    0.154625
  12 H :    0.154622
  13 H :    0.197918

  Mayer bond orders larger than 0.1
B(  0-N ,  1-C ) :   2.0810 B(  0-N ,  9-H ) :   0.8541 B(  1-C ,  2-N ) :   1.0019
B(  1-C ,  7-C ) :   0.8653 B(  2-N ,  3-C ) :   1.1001 B(  2-N , 10-H ) :   0.8487
B(  3-C ,  4-O ) :   1.9894 B(  3-C ,  5-C ) :   0.9280 B(  5-C ,  6-N ) :   0.8770
B(  5-C , 11-H ) :   0.9117 B(  5-C , 12-H ) :   0.9117 B(  6-N ,  7-C ) :   1.1926
B(  6-N , 13-H ) :   0.8528 B(  7-C ,  8-O ) :   2.0292

MP2 TOTAL ENERGY:     -469.318716953 Eh
FINAL SINGLE POINT ENERGY      -469.318716952840

DIPOLE MOMENT
-------------
                                X             Y             Z
Electronic contribution:     -0.25230       1.40588      -0.31954
Nuclear contribution   :      0.92084      -2.33985       0.53853
                        -----------------------------------------
Total Dipole Moment    :      0.66853      -0.93397       0.21899
                        -----------------------------------------
Magnitude (a.u.)       :      1.16927
Magnitude (Debye)      :      2.97205

                             ****ORCA TERMINATED NORMALLY****
TOTAL RUN TIME: 0 days 0 hours 13 minutes 54 seconds 663 msec
