                         Program Version 3.0.3 - RELEASE   -
|  1> ! RI-MP2 RIJK def2-TZVP def2-TZVP/C def2-TZVP/JK TIGHTSCF
|  2> % maxcore 2000
|  3> % mp2 density relaxed end
|  4> *xyz 0 1
|  5>  C       -0.0262379484     1.4586885899    -0.0072221803
|  6>  C       -0.0112666712     0.0034422870    -0.0157493719
|  7>  C       -0.0029141830    -1.2033201923    -0.0299677464
|  8>  C        0.0338621049    -2.6232885091    -0.0128285774
|  9>  C       -0.3556925346    -3.4802543906    -1.2020417788
| 10>  C       -1.1318979249    -3.6288843010     0.0695672454
| 11>  C       -0.3910506892    -4.4009667125     1.1917991809
| 12>  C        0.9838636426    -4.8829573042     0.8105512597
| 13>  C        0.7678883386    -3.4264357262     1.1128408627
| 14>  H        0.7425175207     1.8564434530     0.6650801764
| 15>  H        0.1669411798     1.8693162681    -1.0050060999
| 16>  H       -0.9923131177     1.8513980644     0.3309733102
| 17>  H       -0.8725618075    -2.9212670981    -1.9753304464
| 18>  H        0.2944889538    -4.2561835645    -1.5903209812
| 19>  H       -2.1849322560    -3.3872633192     0.1286103763
| 20>  H       -0.9021464033    -4.7607523797     2.0748351836
| 21>  H        1.4945419555    -5.4205209665     1.6045975097
| 22>  H        1.2282776095    -5.2542750335    -0.1782007462
| 23>  H        1.2738135006    -2.9141906248     1.9201186036
| 24> *
| 25>
| 26>                          ****END OF INPUT****

CARTESIAN COORDINATES (ANGSTROEM)
---------------------------------
  C     -0.026238    1.458689   -0.007222
  C     -0.011267    0.003442   -0.015749
  C     -0.002914   -1.203320   -0.029968
  C      0.033862   -2.623289   -0.012829
  C     -0.355693   -3.480254   -1.202042
  C     -1.131898   -3.628884    0.069567
  C     -0.391051   -4.400967    1.191799
  C      0.983864   -4.882957    0.810551
  C      0.767888   -3.426436    1.112841
  H      0.742518    1.856443    0.665080
  H      0.166941    1.869316   -1.005006
  H     -0.992313    1.851398    0.330973
  H     -0.872562   -2.921267   -1.975330
  H      0.294489   -4.256184   -1.590321
  H     -2.184932   -3.387263    0.128610
  H     -0.902146   -4.760752    2.074835
  H      1.494542   -5.420521    1.604598
  H      1.228278   -5.254275   -0.178201
  H      1.273814   -2.914191    1.920119

 Total Charge           Charge          ....    0
 Multiplicity           Mult            ....    1
 Number of Electrons    NEL             ....   64
 Basis Dimension        Dim             ....  339

ORBITAL ENERGIES
----------------

  NO   OCC          E(Eh)            E(eV)
   0   2.0000     -11.254814      -306.2591
   1   2.0000     -11.241793      -305.9047
   2   2.0000     -11.241774      -305.9042
   3   2.0000     -11.237222      -305.7803
   4   2.0000     -11.235894      -305.7442
   5   2.0000     -11.235384      -305.7303
   6   2.0000     -11.231908      -305.6357
   7   2.0000     -11.217132      -305.2337
   8   2.0000     -11.212927      -305.1193
   9   2.0000      -1.221227       -33.2313
  10   2.0000      -1.083393       -29.4806
  11   2.0000      -1.044912       -28.4335
  12   2.0000      -0.960902       -26.1475
  13   2.0000      -0.876871       -23.8609
  14   2.0000      -0.872764       -23.7491
  15   2.0000      -0.776685       -21.1347
  16   2.0000      -0.746276       -20.3072
  17   2.0000      -0.714546       -19.4438
  18   2.0000      -0.654294       -17.8043
  19   2.0000      -0.630650       -17.1609
  20   2.0000      -0.611222       -16.6322
  21   2.0000      -0.581325       -15.8187
  22   2.0000      -0.580294       -15.7906
  23   2.0000      -0.544078       -14.8051
  24   2.0000      -0.537244       -14.6191
  25   2.0000      -0.509237       -13.8571
  26   2.0000      -0.474349       -12.9077
  27   2.0000      -0.465307       -12.6616
  28   2.0000      -0.415334       -11.3018
  29   2.0000      -0.382458       -10.4072
  30   2.0000      -0.356965        -9.7135
  31   2.0000      -0.303434        -8.2569
  32   0.0000       0.140965         3.8359
  33   0.0000       0.156569         4.2605
  34   0.0000       0.161224         4.3871
  35   0.0000       0.169307         4.6071
  36   0.0000       0.180729         4.9179

MULLIKEN ATOMIC CHARGES
-----------------------
   0 C :   -0.481110
   1 C :    0.073194
   2 C :   -0.051879
   3 C :   -0.057535
   4 C :   -0.241691
   5 C :   -0.124357
   6 C :   -0.132061
   7 C :   -0.250807
   8 C :   -0.149501
   9 H :    0.161066
  10 H :    0.160788
  11 H :    0.160359
  12 H :    0.137617
  13 H :    0.122892
  14 H :    0.139360
  15 H :    0.136874
  16 H :    0.130054
  17 H :    0.125130
  18 H :    0.141607
Sum of atomic charges:   -0.0000000

LOEWDIN ATOMIC CHARGES
----------------------
   0 C :   -0.298444
   1 C :   -0.094709
   2 C :   -0.055986
   3 C :   -0.166477
   4 C :   -0.163427
   5 C :   -0.123835
   6 C :   -0.161717
   7 C :   -0.202205
   8 C :   -0.126718
   9 H :    0.140977
  10 H :    0.139611
  11 H :    0.139186
  12 H :    0.148581
  13 H :    0.130438
  14 H :    0.142034
  15 H :    0.138078
  16 H :    0.143777
  17 H :    0.128345
  18 H :    0.142490

  Mayer bond orders larger than 0.1
B(  0-C ,  1-C ) :   0.8387 B(  0-C ,  9-H ) :   0.9475 B(  0-C , 10-H ) :   0.9483
B(  0-C , 11-H ) :   0.9485 B(  1-C ,  2-C ) :   2.6134 B(  1-C ,  3-C ) :  -0.1920
B(  2-C ,  3-C ) :   1.2111 B(  3-C ,  4-C ) :   0.8383 B(  3-C ,  5-C ) :   0.7995
B(  3-C ,  8-C ) :   0.8953 B(  4-C ,  5-C ) :   0.9330 B(  4-C , 12-H ) :   0.9234
B(  4-C , 13-H ) :   0.8953 B(  5-C ,  6-C ) :   0.9022 B(  5-C , 14-H ) :   0.9133
B(  6-C ,  7-C ) :   0.9080 B(  6-C ,  8-C ) :   0.9049 B(  6-C , 15-H ) :   0.9249
B(  7-C ,  8-C ) :   0.8972 B(  7-C , 16-H ) :   0.9295 B(  7-C , 17-H ) :   0.9050
B(  8-C , 18-H ) :   0.9257

MP2 TOTAL ENERGY:     -347.995413017 Eh
FINAL SINGLE POINT ENERGY      -347.995413016674

DIPOLE MOMENT
-------------
                                X             Y             Z
Electronic contribution:     -0.42348      -1.06882       0.23981
Nuclear contribution   :      0.34060       1.12553      -0.13266
                        -----------------------------------------
Total Dipole Moment    :     -0.08288       0.05671       0.10715
                        -----------------------------------------
Magnitude (a.u.)       :      0.14685
Magnitude (Debye)      :      0.37327

                             ****ORCA TERMINATED NORMALLY****
TOTAL RUN TIME: 0 days 0 hours 18 minutes 1 seconds 308 msec
