                         Program Version 3.0.3 - RELEASE   -
|  1> ! RI-MP2 RIJK def2-TZVP def2-TZVP/C def2-TZVP/JK TIGHTSCF
|  2> % maxcore 2000
|  3> % mp2 density relaxed end
|  4> *xyz 0 1
|  5>  C        0.0190700246     1.4964782129     0.1304444451
|  6>  C        0.0070208789     0.0041317156    -0.0339204864
|  7>  C        0.9256156894    -0.7757633278    -1.0150020761
|  8>  C        0.7023633541    -1.8302615448     0.0887906729
|  9>  O        0.6422504647    -0.7444850249     1.0641354939
| 10>  C       -0.7765163261    -2.1677946159    -0.0729953531
| 11>  C       -1.3249527451    -3.3934616574    -0.6515451652
| 12>  O       -1.3721242594    -3.1463147961     0.7620618240
| 13>  C       -1.3488669225    -0.7419406989    -0.1564678166
| 14>  H        1.0415093017     1.8655650963     0.2480809930
| 15>  H       -0.4284273712     1.9802717276    -0.7439085203
| 16>  H       -0.5576983562     1.7887052426     1.0139525572
| 17>  H        0.5759107256    -0.9790446613    -2.0311281661
| 18>  H        1.9453115768    -0.3883864567    -1.0088818895
| 19>  H        1.3981286260    -2.6308146545     0.3359777816
| 20>  H       -2.2862463068    -3.3666898299    -1.1634701399
| 21>  H       -0.6606423008    -4.2002146882    -0.9614860929
| 22>  H       -2.0016095778    -0.5283219275     0.6931078812
| 23>  H       -1.8820467859    -0.5310029509    -1.0876008729
| 24> *
| 25>
| 26>                          ****END OF INPUT****

CARTESIAN COORDINATES (ANGSTROEM)
---------------------------------
  C      0.019070    1.496478    0.130444
  C      0.007021    0.004132   -0.033920
  C      0.925616   -0.775763   -1.015002
  C      0.702363   -1.830262    0.088791
  O      0.642250   -0.744485    1.064135
  C     -0.776516   -2.167795   -0.072995
  C     -1.324953   -3.393462   -0.651545
  O     -1.372124   -3.146315    0.762062
  C     -1.348867   -0.741941   -0.156468
  H      1.041509    1.865565    0.248081
  H     -0.428427    1.980272   -0.743909
  H     -0.557698    1.788705    1.013953
  H      0.575911   -0.979045   -2.031128
  H      1.945312   -0.388386   -1.008882
  H      1.398129   -2.630815    0.335978
  H     -2.286246   -3.366690   -1.163470
  H     -0.660642   -4.200215   -0.961486
  H     -2.001610   -0.528322    0.693108
  H     -1.882047   -0.531003   -1.087601

 Total Charge           Charge          ....    0
 Multiplicity           Mult            ....    1
 Number of Electrons    NEL             ....   68
 Basis Dimension        Dim             ....  339

ORBITAL ENERGIES
----------------

  NO   OCC          E(Eh)            E(eV)
   0   2.0000     -20.567002      -559.6566
   1   2.0000     -20.549435      -559.1786
   2   2.0000     -11.298975      -307.4607
   3   2.0000     -11.293526      -307.3125
   4   2.0000     -11.291061      -307.2454
   5   2.0000     -11.284876      -307.0771
   6   2.0000     -11.236800      -305.7689
   7   2.0000     -11.232619      -305.6551
   8   2.0000     -11.224945      -305.4463
   9   2.0000      -1.417880       -38.5825
  10   2.0000      -1.386299       -37.7231
  11   2.0000      -1.080068       -29.3902
  12   2.0000      -1.017864       -27.6975
  13   2.0000      -0.971889       -26.4465
  14   2.0000      -0.917735       -24.9728
  15   2.0000      -0.886932       -24.1346
  16   2.0000      -0.768161       -20.9027
  17   2.0000      -0.756851       -20.5950
  18   2.0000      -0.691261       -18.8102
  19   2.0000      -0.677174       -18.4269
  20   2.0000      -0.636230       -17.3127
  21   2.0000      -0.628084       -17.0910
  22   2.0000      -0.605143       -16.4668
  23   2.0000      -0.599305       -16.3079
  24   2.0000      -0.554948       -15.1009
  25   2.0000      -0.537215       -14.6184
  26   2.0000      -0.534626       -14.5479
  27   2.0000      -0.513798       -13.9812
  28   2.0000      -0.504597       -13.7308
  29   2.0000      -0.475086       -12.9277
  30   2.0000      -0.461055       -12.5459
  31   2.0000      -0.443798       -12.0764
  32   2.0000      -0.431852       -11.7513
  33   2.0000      -0.406549       -11.0628
  34   0.0000       0.133066         3.6209
  35   0.0000       0.153641         4.1808
  36   0.0000       0.167289         4.5522
  37   0.0000       0.176086         4.7915
  38   0.0000       0.190500         5.1838

MULLIKEN ATOMIC CHARGES
-----------------------
   0 C :   -0.405393
   1 C :    0.097126
   2 C :   -0.203605
   3 C :    0.043321
   4 O :   -0.302231
   5 C :    0.083767
   6 C :   -0.108753
   7 O :   -0.327752
   8 C :   -0.158159
   9 H :    0.141204
  10 H :    0.134261
  11 H :    0.144662
  12 H :    0.122167
  13 H :    0.118186
  14 H :    0.143160
  15 H :    0.116686
  16 H :    0.116511
  17 H :    0.123048
  18 H :    0.121793
Sum of atomic charges:    0.0000000

LOEWDIN ATOMIC CHARGES
----------------------
   0 C :   -0.268304
   1 C :   -0.317848
   2 C :   -0.174877
   3 C :   -0.223127
   4 O :    0.179184
   5 C :   -0.306630
   6 C :   -0.239478
   7 O :    0.173584
   8 C :   -0.165005
   9 H :    0.132209
  10 H :    0.133608
  11 H :    0.135387
  12 H :    0.130517
  13 H :    0.140843
  14 H :    0.137293
  15 H :    0.121793
  16 H :    0.121488
  17 H :    0.149300
  18 H :    0.140062

  Mayer bond orders larger than 0.1
B(  0-C ,  1-C ) :   0.8611 B(  0-C ,  9-H ) :   0.9406 B(  0-C , 10-H ) :   0.9358
B(  0-C , 11-H ) :   0.9396 B(  1-C ,  2-C ) :   0.9293 B(  1-C ,  4-O ) :   0.9412
B(  1-C ,  8-C ) :   0.9577 B(  2-C ,  3-C ) :   0.9143 B(  2-C , 12-H ) :   0.9159
B(  2-C , 13-H ) :   0.9087 B(  3-C ,  4-O ) :   0.9447 B(  3-C ,  5-C ) :   0.9347
B(  3-C , 14-H ) :   0.8944 B(  5-C ,  6-C ) :   0.9754 B(  5-C ,  7-O ) :   0.8736
B(  5-C ,  8-C ) :   0.9365 B(  6-C ,  7-O ) :   0.9029 B(  6-C , 15-H ) :   0.9131
B(  6-C , 16-H ) :   0.9053 B(  8-C , 17-H ) :   0.8958 B(  8-C , 18-H ) :   0.9041

MP2 TOTAL ENERGY:     -422.285498076 Eh
FINAL SINGLE POINT ENERGY      -422.285498075570

DIPOLE MOMENT
-------------
                                X             Y             Z
Electronic contribution:      0.01271      -4.87010       3.37319
Nuclear contribution   :      0.00537       5.19255      -4.68042
                        -----------------------------------------
Total Dipole Moment    :      0.01808       0.32245      -1.30723
                        -----------------------------------------
Magnitude (a.u.)       :      1.34653
Magnitude (Debye)      :      3.42262

                             ****ORCA TERMINATED NORMALLY****
TOTAL RUN TIME: 0 days 0 hours 17 minutes 13 seconds 983 msec
