                         Program Version 3.0.3 - RELEASE   -
|  1> ! RI-MP2 RIJK def2-TZVP def2-TZVP/C def2-TZVP/JK TIGHTSCF
|  2> % maxcore 2000
|  3> % mp2 density relaxed end
|  4> *xyz 0 1
|  5>  O       -0.0477033430     0.0103491084    -0.0190539222
|  6>  C       -0.0373714566     1.1965761179     0.0569377387
|  7>  C       -1.1345949993     2.2928404156     0.1586654065
|  8>  C       -0.0250097992     3.3288425942    -0.0661962442
|  9>  N        0.8922030579     3.1783179734     1.0551010557
| 10>  C        1.0502389299     2.2607342033    -0.1365760685
| 11>  C        2.2589407211     2.2069583778    -0.8824265231
| 12>  N        3.2379835724     2.1465283883    -1.4969280987
| 13>  H       -1.8339285970     2.1928711077    -0.6758533498
| 14>  H       -1.6759710415     2.3734674227     1.1024368998
| 15>  H       -0.0704420733     4.2283428572    -0.6652567513
| 16>  H        1.6341157385     3.8755436734     0.9740316371
| 17> *
| 18>
| 19>                          ****END OF INPUT****

CARTESIAN COORDINATES (ANGSTROEM)
---------------------------------
  O     -0.047703    0.010349   -0.019054
  C     -0.037371    1.196576    0.056938
  C     -1.134595    2.292840    0.158665
  C     -0.025010    3.328843   -0.066196
  N      0.892203    3.178318    1.055101
  C      1.050239    2.260734   -0.136576
  C      2.258941    2.206958   -0.882427
  N      3.237984    2.146528   -1.496928
  H     -1.833929    2.192871   -0.675853
  H     -1.675971    2.373467    1.102437
  H     -0.070442    4.228343   -0.665257
  H      1.634116    3.875544    0.974032

 Total Charge           Charge          ....    0
 Multiplicity           Mult            ....    1
 Number of Electrons    NEL             ....   56
 Basis Dimension        Dim             ....  272

ORBITAL ENERGIES
----------------

  NO   OCC          E(Eh)            E(eV)
   0   2.0000     -20.584435      -560.1309
   1   2.0000     -15.628432      -425.2713
   2   2.0000     -15.596876      -424.4126
   3   2.0000     -11.374066      -309.5041
   4   2.0000     -11.339406      -308.5609
   5   2.0000     -11.329464      -308.2904
   6   2.0000     -11.298511      -307.4481
   7   2.0000     -11.279128      -306.9207
   8   2.0000      -1.432400       -38.9776
   9   2.0000      -1.343579       -36.5606
  10   2.0000      -1.237252       -33.6674
  11   2.0000      -1.087536       -29.5934
  12   2.0000      -0.987493       -26.8710
  13   2.0000      -0.875340       -23.8192
  14   2.0000      -0.843892       -22.9635
  15   2.0000      -0.743419       -20.2295
  16   2.0000      -0.682205       -18.5637
  17   2.0000      -0.680136       -18.5074
  18   2.0000      -0.634302       -17.2602
  19   2.0000      -0.604773       -16.4567
  20   2.0000      -0.584180       -15.8963
  21   2.0000      -0.575572       -15.6621
  22   2.0000      -0.555195       -15.1076
  23   2.0000      -0.528637       -14.3849
  24   2.0000      -0.508951       -13.8492
  25   2.0000      -0.492041       -13.3891
  26   2.0000      -0.432725       -11.7751
  27   2.0000      -0.407567       -11.0905
  28   0.0000       0.099231         2.7002
  29   0.0000       0.118870         3.2346
  30   0.0000       0.137760         3.7486
  31   0.0000       0.142669         3.8822
  32   0.0000       0.148882         4.0513

MULLIKEN ATOMIC CHARGES
-----------------------
   0 O :   -0.211161
   1 C :    0.081530
   2 C :   -0.128090
   3 C :   -0.119193
   4 N :   -0.338938
   5 C :    0.238668
   6 C :   -0.197998
   7 N :   -0.034671
   8 H :    0.149199
   9 H :    0.146969
  10 H :    0.172751
  11 H :    0.240936
Sum of atomic charges:   -0.0000000

LOEWDIN ATOMIC CHARGES
----------------------
   0 O :    0.201281
   1 C :   -0.259326
   2 C :   -0.175643
   3 C :   -0.188101
   4 N :    0.066467
   5 C :   -0.206225
   6 C :   -0.160889
   7 N :    0.092018
   8 H :    0.154523
   9 H :    0.146975
  10 H :    0.142303
  11 H :    0.186617

  Mayer bond orders larger than 0.1
B(  0-O ,  1-C ) :   2.0821 B(  1-C ,  2-C ) :   0.9516 B(  1-C ,  5-C ) :   0.8032
B(  2-C ,  3-C ) :   0.9302 B(  2-C ,  5-C ) :  -0.1435 B(  2-C ,  8-H ) :   0.8989
B(  2-C ,  9-H ) :   0.8817 B(  3-C ,  4-N ) :   1.0003 B(  3-C ,  5-C ) :   0.8488
B(  3-C , 10-H ) :   0.8976 B(  4-N ,  5-C ) :   0.8587 B(  4-N , 11-H ) :   0.8635
B(  5-C ,  6-C ) :   0.9175 B(  6-C ,  7-N ) :   2.8299

MP2 TOTAL ENERGY:     -376.856870540 Eh
FINAL SINGLE POINT ENERGY      -376.856870539711

DIPOLE MOMENT
-------------
                                X             Y             Z
Electronic contribution:      3.42207      -2.68312      -1.02836
Nuclear contribution   :     -4.61752       4.11896       1.25333
                        -----------------------------------------
Total Dipole Moment    :     -1.19545       1.43584       0.22497
                        -----------------------------------------
Magnitude (a.u.)       :      1.88184
Magnitude (Debye)      :      4.78327

                             ****ORCA TERMINATED NORMALLY****
TOTAL RUN TIME: 0 days 0 hours 9 minutes 30 seconds 630 msec
