                         Program Version 3.0.3 - RELEASE   -
|  1> ! RI-MP2 RIJK def2-TZVP def2-TZVP/C def2-TZVP/JK TIGHTSCF
|  2> % maxcore 2000
|  3> % mp2 density relaxed end
|  4> *xyz 0 1
|  5>  C       -0.1766942397     1.5086619693     0.0141585405
|  6>  C       -0.0038589202     0.0033815662     0.0027574580
|  7>  O       -1.3232501569    -0.5840441653     0.0129328667
|  8>  C       -1.3824642286    -1.9098329447     0.0046577623
|  9>  N       -0.3678680562    -2.6738436984    -0.0112093463
| 10>  C       -2.8277304059    -2.3765649048     0.0164832830
| 11>  O       -3.7852365090    -1.6541565889     0.0308015992
| 12>  C       -2.9832002573    -3.8485812544     0.0083852872
| 13>  N       -3.1386153061    -4.9945441173     0.0024690786
| 14>  H        0.8056398019     1.9897276335     0.0070327022
| 15>  H       -0.7330995161     1.8448427186    -0.8648286549
| 16>  H       -0.7146667696     1.8335022921     0.9087481008
| 17>  H        0.5270517379    -0.3495443938    -0.8873192281
| 18>  H        0.5456443837    -0.3607408900     0.8769027676
| 19>  H       -0.6341550880    -3.6579360122    -0.0150802367
| 20> *
| 21>
| 22>                          ****END OF INPUT****

CARTESIAN COORDINATES (ANGSTROEM)
---------------------------------
  C     -0.176694    1.508662    0.014159
  C     -0.003859    0.003382    0.002757
  O     -1.323250   -0.584044    0.012933
  C     -1.382464   -1.909833    0.004658
  N     -0.367868   -2.673844   -0.011209
  C     -2.827730   -2.376565    0.016483
  O     -3.785237   -1.654157    0.030802
  C     -2.983200   -3.848581    0.008385
  N     -3.138615   -4.994544    0.002469
  H      0.805640    1.989728    0.007033
  H     -0.733100    1.844843   -0.864829
  H     -0.714667    1.833502    0.908748
  H      0.527052   -0.349544   -0.887319
  H      0.545644   -0.360741    0.876903
  H     -0.634155   -3.657936   -0.015080

 Total Charge           Charge          ....    0
 Multiplicity           Mult            ....    1
 Number of Electrons    NEL             ....   66
 Basis Dimension        Dim             ....  315

ORBITAL ENERGIES
----------------

  NO   OCC          E(Eh)            E(eV)
   0   2.0000     -20.628783      -561.3377
   1   2.0000     -20.619759      -561.0922
   2   2.0000     -15.626920      -425.2301
   3   2.0000     -15.587794      -424.1654
   4   2.0000     -11.420828      -310.7765
   5   2.0000     -11.385338      -309.8108
   6   2.0000     -11.314715      -307.8891
   7   2.0000     -11.303533      -307.5848
   8   2.0000     -11.234260      -305.6998
   9   2.0000      -1.479848       -40.2687
  10   2.0000      -1.450568       -39.4720
  11   2.0000      -1.264964       -34.4214
  12   2.0000      -1.240309       -33.7505
  13   2.0000      -1.058372       -28.7998
  14   2.0000      -0.998633       -27.1742
  15   2.0000      -0.901795       -24.5391
  16   2.0000      -0.828012       -22.5314
  17   2.0000      -0.782452       -21.2916
  18   2.0000      -0.725799       -19.7500
  19   2.0000      -0.708015       -19.2661
  20   2.0000      -0.699542       -19.0355
  21   2.0000      -0.627369       -17.0716
  22   2.0000      -0.612711       -16.6727
  23   2.0000      -0.599932       -16.3250
  24   2.0000      -0.577287       -15.7088
  25   2.0000      -0.561356       -15.2753
  26   2.0000      -0.544604       -14.8194
  27   2.0000      -0.524178       -14.2636
  28   2.0000      -0.516526       -14.0554
  29   2.0000      -0.509397       -13.8614
  30   2.0000      -0.503345       -13.6967
  31   2.0000      -0.467525       -12.7220
  32   2.0000      -0.439360       -11.9556
  33   0.0000       0.019925         0.5422
  34   0.0000       0.127208         3.4615
  35   0.0000       0.142383         3.8744
  36   0.0000       0.152155         4.1403
  37   0.0000       0.157829         4.2947

MULLIKEN ATOMIC CHARGES
-----------------------
   0 C :   -0.358493
   1 C :   -0.063884
   2 O :   -0.213969
   3 C :    0.138559
   4 N :   -0.350398
   5 C :    0.347376
   6 O :   -0.190571
   7 C :   -0.188490
   8 N :   -0.028183
   9 H :    0.134453
  10 H :    0.137711
  11 H :    0.137714
  12 H :    0.128216
  13 H :    0.128202
  14 H :    0.241758
Sum of atomic charges:    0.0000000

LOEWDIN ATOMIC CHARGES
----------------------
   0 C :   -0.311661
   1 C :   -0.293795
   2 O :    0.283965
   3 C :   -0.410409
   4 N :   -0.012985
   5 C :   -0.286851
   6 O :    0.244165
   7 C :   -0.145585
   8 N :    0.108435
   9 H :    0.130374
  10 H :    0.127467
  11 H :    0.127470
  12 H :    0.130978
  13 H :    0.130975
  14 H :    0.177457

  Mayer bond orders larger than 0.1
B(  0-C ,  1-C ) :   0.9432 B(  0-C ,  9-H ) :   0.9331 B(  0-C , 10-H ) :   0.9329
B(  0-C , 11-H ) :   0.9329 B(  1-C ,  2-O ) :   0.8170 B(  1-C , 12-H ) :   0.9288
B(  1-C , 13-H ) :   0.9288 B(  2-O ,  3-C ) :   1.1815 B(  3-C ,  4-N ) :   1.8729
B(  3-C ,  5-C ) :   0.8851 B(  4-N , 14-H ) :   0.8550 B(  5-C ,  6-O ) :   1.9824
B(  5-C ,  7-C ) :   0.8613 B(  7-C ,  8-N ) :   2.7667

MP2 TOTAL ENERGY:     -453.217272782 Eh
FINAL SINGLE POINT ENERGY      -453.217272782261

DIPOLE MOMENT
-------------
                                X             Y             Z
Electronic contribution:     -8.75163     -10.19569       0.02503
Nuclear contribution   :      9.58741      11.10007      -0.02770
                        -----------------------------------------
Total Dipole Moment    :      0.83577       0.90437      -0.00267
                        -----------------------------------------
Magnitude (a.u.)       :      1.23143
Magnitude (Debye)      :      3.13004

                             ****ORCA TERMINATED NORMALLY****
TOTAL RUN TIME: 0 days 0 hours 13 minutes 56 seconds 205 msec
