                         Program Version 3.0.3 - RELEASE   -
|  1> ! RI-MP2 RIJK def2-TZVP def2-TZVP/C def2-TZVP/JK TIGHTSCF
|  2> % maxcore 2000
|  3> % mp2 density relaxed end
|  4> *xyz 0 1
|  5>  C        1.3579458863     0.0545751424    -0.3430965584
|  6>  C        0.5900308304    -1.0716745642    -0.9379157142
|  7>  N       -0.0513185891    -0.1435091837    -0.0080084036
|  8>  C       -0.3321717102    -0.6560284860     1.3249927988
|  9>  C       -0.4076003558     0.5038999188     2.3274060051
| 10>  O       -0.8389774450     0.0329361679     3.5958294634
| 11>  C       -2.0812719278    -0.6114394571     3.4986499493
| 12>  O       -2.0453982023    -1.7364259763     2.6613437260
| 13>  C       -1.6884457241    -1.3746214041     1.3352722493
| 14>  H        2.1015981390    -0.1963820980     0.4116918553
| 15>  H        1.5835001444     0.9404171960    -0.9292643070
| 16>  H        0.2446878249    -1.0231314298    -1.9662956218
| 17>  H        0.8216910034    -2.0735359287    -0.5797101823
| 18>  H        0.4383042561    -1.3660263016     1.6746318891
| 19>  H        0.5699062213     0.9700821647     2.4764398857
| 20>  H       -1.1003822596     1.2678372609     1.9380236870
| 21>  H       -2.3391462093    -0.9639632903     4.4990364635
| 22>  H       -2.8443000375     0.1026906320     3.1315763899
| 23>  H       -2.4484146997    -0.7092257191     0.8938400893
| 24>  H       -1.6582384354    -2.2977776538     0.7505276658
| 25> *
| 26>
| 27>                          ****END OF INPUT****

CARTESIAN COORDINATES (ANGSTROEM)
---------------------------------
  C      1.357946    0.054575   -0.343097
  C      0.590031   -1.071675   -0.937916
  N     -0.051319   -0.143509   -0.008008
  C     -0.332172   -0.656028    1.324993
  C     -0.407600    0.503900    2.327406
  O     -0.838977    0.032936    3.595829
  C     -2.081272   -0.611439    3.498650
  O     -2.045398   -1.736426    2.661344
  C     -1.688446   -1.374621    1.335272
  H      2.101598   -0.196382    0.411692
  H      1.583500    0.940417   -0.929264
  H      0.244688   -1.023131   -1.966296
  H      0.821691   -2.073536   -0.579710
  H      0.438304   -1.366026    1.674632
  H      0.569906    0.970082    2.476440
  H     -1.100382    1.267837    1.938024
  H     -2.339146   -0.963963    4.499036
  H     -2.844300    0.102691    3.131576
  H     -2.448415   -0.709226    0.893840
  H     -1.658238   -2.297778    0.750528

 Total Charge           Charge          ....    0
 Multiplicity           Mult            ....    1
 Number of Electrons    NEL             ....   70
 Basis Dimension        Dim             ....  345

ORBITAL ENERGIES
----------------

  NO   OCC          E(Eh)            E(eV)
   0   2.0000     -20.561925      -559.5184
   1   2.0000     -20.561906      -559.5179
   2   2.0000     -15.569664      -423.6721
   3   2.0000     -11.325680      -308.1874
   4   2.0000     -11.277636      -306.8801
   5   2.0000     -11.277633      -306.8800
   6   2.0000     -11.263603      -306.4982
   7   2.0000     -11.262876      -306.4784
   8   2.0000     -11.262063      -306.4563
   9   2.0000      -1.423849       -38.7449
  10   2.0000      -1.346266       -36.6337
  11   2.0000      -1.284546       -34.9543
  12   2.0000      -1.071384       -29.1538
  13   2.0000      -0.939073       -25.5535
  14   2.0000      -0.921160       -25.0660
  15   2.0000      -0.853102       -23.2141
  16   2.0000      -0.848799       -23.0970
  17   2.0000      -0.792837       -21.5742
  18   2.0000      -0.711819       -19.3696
  19   2.0000      -0.685340       -18.6490
  20   2.0000      -0.671256       -18.2658
  21   2.0000      -0.670843       -18.2546
  22   2.0000      -0.640352       -17.4249
  23   2.0000      -0.622793       -16.9470
  24   2.0000      -0.576219       -15.6797
  25   2.0000      -0.572260       -15.5720
  26   2.0000      -0.550681       -14.9848
  27   2.0000      -0.536123       -14.5887
  28   2.0000      -0.500625       -13.6227
  29   2.0000      -0.494748       -13.4628
  30   2.0000      -0.479870       -13.0579
  31   2.0000      -0.467068       -12.7096
  32   2.0000      -0.432816       -11.7775
  33   2.0000      -0.413330       -11.2473
  34   2.0000      -0.388054       -10.5595
  35   0.0000       0.143517         3.9053
  36   0.0000       0.157459         4.2847
  37   0.0000       0.158473         4.3123
  38   0.0000       0.177462         4.8290
  39   0.0000       0.195387         5.3168

MULLIKEN ATOMIC CHARGES
-----------------------
   0 C :   -0.183991
   1 C :   -0.183991
   2 N :   -0.228254
   3 C :   -0.033907
   4 C :   -0.049855
   5 O :   -0.303241
   6 C :    0.058279
   7 O :   -0.303241
   8 C :   -0.049854
   9 H :    0.128249
  10 H :    0.134489
  11 H :    0.134489
  12 H :    0.128249
  13 H :    0.070785
  14 H :    0.123862
  15 H :    0.108026
  16 H :    0.133559
  17 H :    0.084458
  18 H :    0.108025
  19 H :    0.123862
Sum of atomic charges:    0.0000000

LOEWDIN ATOMIC CHARGES
----------------------
   0 C :   -0.263705
   1 C :   -0.263705
   2 N :    0.113971
   3 C :   -0.315382
   4 C :   -0.289438
   5 O :    0.159172
   6 C :   -0.399822
   7 O :    0.159172
   8 C :   -0.289440
   9 H :    0.124760
  10 H :    0.125585
  11 H :    0.125585
  12 H :    0.124760
  13 H :    0.141602
  14 H :    0.131238
  15 H :    0.126929
  16 H :    0.124145
  17 H :    0.106402
  18 H :    0.126929
  19 H :    0.131238

  Mayer bond orders larger than 0.1
B(  0-C ,  1-C ) :   0.9473 B(  0-C ,  2-N ) :   0.8774 B(  0-C ,  9-H ) :   0.9222
B(  0-C , 10-H ) :   0.9269 B(  1-C ,  2-N ) :   0.8774 B(  1-C , 11-H ) :   0.9269
B(  1-C , 12-H ) :   0.9222 B(  2-N ,  3-C ) :   0.9157 B(  3-C ,  4-C ) :   0.9084
B(  3-C ,  8-C ) :   0.9084 B(  3-C , 13-H ) :   0.9162 B(  4-C ,  5-O ) :   0.9173
B(  4-C , 14-H ) :   0.9242 B(  4-C , 15-H ) :   0.9420 B(  5-O ,  6-C ) :   0.9810
B(  6-C ,  7-O ) :   0.9810 B(  6-C , 16-H ) :   0.9276 B(  6-C , 17-H ) :   0.9344
B(  7-O ,  8-C ) :   0.9173 B(  8-C , 18-H ) :   0.9420 B(  8-C , 19-H ) :   0.9242

MP2 TOTAL ENERGY:     -439.530040123 Eh
FINAL SINGLE POINT ENERGY      -439.530040123385

DIPOLE MOMENT
-------------
                                X             Y             Z
Electronic contribution:     -1.89409      -0.67511       3.72352
Nuclear contribution   :      2.21078       0.77257      -4.31688
                        -----------------------------------------
Total Dipole Moment    :      0.31669       0.09746      -0.59336
                        -----------------------------------------
Magnitude (a.u.)       :      0.67961
Magnitude (Debye)      :      1.72742

                             ****ORCA TERMINATED NORMALLY****
TOTAL RUN TIME: 0 days 0 hours 16 minutes 21 seconds 682 msec
