                         Program Version 3.0.3 - RELEASE   -
|  1> ! RI-MP2 RIJK def2-TZVP def2-TZVP/C def2-TZVP/JK TIGHTSCF
|  2> % maxcore 2000
|  3> % mp2 density relaxed end
|  4> *xyz 0 1
|  5>  C       -1.8262051257     0.3425309988     1.6787623651
|  6>  C       -0.8822628003    -0.6396370787     1.0209741693
|  7>  C        0.0452000973    -0.2110398953    -0.0880639130
|  8>  C        0.6185129952    -0.6174574899     1.2514752402
|  9>  C        1.3228496691     0.3483097753     2.1850993925
| 10>  C        1.5431481368     1.7718421509     1.7034022974
| 11>  C        1.1125617983     0.1445859930     3.6729037655
| 12>  C        2.4260793812    -0.2387203161     3.0407082553
| 13>  H       -1.3884442865     1.3408258518     1.7604815705
| 14>  H       -2.7535896875     0.4358973667     1.1022983906
| 15>  H       -2.0957844560     0.0204811935     2.6905634916
| 16>  H       -1.3034089698    -1.6367491687     0.9138147993
| 17>  H        0.1967438887    -0.8662158825    -0.9394635113
| 18>  H        0.0551385544     0.8439109170    -0.3415085398
| 19>  H        1.0672500318    -1.6076333945     1.2595987452
| 20>  H        0.6032235291     2.2999521818     1.5091533826
| 21>  H        2.0887407576     2.3503666837     2.4556273463
| 22>  H        2.1293855932     1.7892681663     0.7779890812
| 23>  H        1.0858197589     1.0196419440     4.3143359374
| 24>  H        0.4470616843    -0.6539389141     3.9830086185
| 25>  H        2.6498731712    -1.2950720538     2.9316250058
| 26>  H        3.2952809288     0.3774070708     3.2468339198
| 27> *
| 28>
| 29>                          ****END OF INPUT****

CARTESIAN COORDINATES (ANGSTROEM)
---------------------------------
  C     -1.826205    0.342531    1.678762
  C     -0.882263   -0.639637    1.020974
  C      0.045200   -0.211040   -0.088064
  C      0.618513   -0.617457    1.251475
  C      1.322850    0.348310    2.185099
  C      1.543148    1.771842    1.703402
  C      1.112562    0.144586    3.672904
  C      2.426079   -0.238720    3.040708
  H     -1.388444    1.340826    1.760482
  H     -2.753590    0.435897    1.102298
  H     -2.095784    0.020481    2.690563
  H     -1.303409   -1.636749    0.913815
  H      0.196744   -0.866216   -0.939464
  H      0.055139    0.843911   -0.341509
  H      1.067250   -1.607633    1.259599
  H      0.603224    2.299952    1.509153
  H      2.088741    2.350367    2.455627
  H      2.129386    1.789268    0.777989
  H      1.085820    1.019642    4.314336
  H      0.447062   -0.653939    3.983009
  H      2.649873   -1.295072    2.931625
  H      3.295281    0.377407    3.246834

 Total Charge           Charge          ....    0
 Multiplicity           Mult            ....    1
 Number of Electrons    NEL             ....   62
 Basis Dimension        Dim             ....  332

ORBITAL ENERGIES
----------------

  NO   OCC          E(Eh)            E(eV)
   0   2.0000     -11.235338      -305.7291
   1   2.0000     -11.224854      -305.4438
   2   2.0000     -11.223501      -305.4070
   3   2.0000     -11.217349      -305.2396
   4   2.0000     -11.216385      -305.2134
   5   2.0000     -11.216240      -305.2094
   6   2.0000     -11.213603      -305.1376
   7   2.0000     -11.211965      -305.0931
   8   2.0000      -1.163655       -31.6647
   9   2.0000      -1.115532       -30.3552
  10   2.0000      -0.963607       -26.2211
  11   2.0000      -0.953421       -25.9439
  12   2.0000      -0.844559       -22.9816
  13   2.0000      -0.818187       -22.2640
  14   2.0000      -0.782027       -21.2800
  15   2.0000      -0.716579       -19.4991
  16   2.0000      -0.664799       -18.0901
  17   2.0000      -0.650200       -17.6928
  18   2.0000      -0.610619       -16.6158
  19   2.0000      -0.568882       -15.4801
  20   2.0000      -0.560673       -15.2567
  21   2.0000      -0.559212       -15.2169
  22   2.0000      -0.540195       -14.6995
  23   2.0000      -0.533868       -14.5273
  24   2.0000      -0.508746       -13.8437
  25   2.0000      -0.493055       -13.4167
  26   2.0000      -0.470682       -12.8079
  27   2.0000      -0.434364       -11.8197
  28   2.0000      -0.426487       -11.6053
  29   2.0000      -0.387424       -10.5423
  30   2.0000      -0.360097        -9.7987
  31   0.0000       0.141651         3.8545
  32   0.0000       0.156147         4.2490
  33   0.0000       0.162880         4.4322
  34   0.0000       0.171032         4.6540
  35   0.0000       0.192688         5.2433

MULLIKEN ATOMIC CHARGES
-----------------------
   0 C :   -0.383498
   1 C :   -0.089564
   2 C :   -0.282923
   3 C :   -0.125520
   4 C :    0.142682
   5 C :   -0.430266
   6 C :   -0.294906
   7 C :   -0.297816
   8 H :    0.117043
   9 H :    0.135005
  10 H :    0.126290
  11 H :    0.109532
  12 H :    0.128368
  13 H :    0.129471
  14 H :    0.113893
  15 H :    0.126135
  16 H :    0.127941
  17 H :    0.142685
  18 H :    0.125554
  19 H :    0.127735
  20 H :    0.126941
  21 H :    0.125215
Sum of atomic charges:    0.0000000

LOEWDIN ATOMIC CHARGES
----------------------
   0 C :   -0.293750
   1 C :   -0.231949
   2 C :   -0.206625
   3 C :   -0.167901
   4 C :   -0.252824
   5 C :   -0.268221
   6 C :   -0.209558
   7 C :   -0.210479
   8 H :    0.124783
   9 H :    0.125042
  10 H :    0.124515
  11 H :    0.145164
  12 H :    0.128946
  13 H :    0.135571
  14 H :    0.153246
  15 H :    0.119608
  16 H :    0.128706
  17 H :    0.128170
  18 H :    0.131127
  19 H :    0.134040
  20 H :    0.130973
  21 H :    0.131414

  Mayer bond orders larger than 0.1
B(  0-C ,  1-C ) :   0.9192 B(  0-C ,  8-H ) :   0.9352 B(  0-C ,  9-H ) :   0.9380
B(  0-C , 10-H ) :   0.9395 B(  1-C ,  2-C ) :   0.9023 B(  1-C ,  3-C ) :   0.8701
B(  1-C , 11-H ) :   0.9313 B(  2-C ,  3-C ) :   0.8889 B(  2-C , 12-H ) :   0.9300
B(  2-C , 13-H ) :   0.9241 B(  3-C ,  4-C ) :   0.8803 B(  3-C , 14-H ) :   0.9266
B(  4-C ,  5-C ) :   0.9156 B(  4-C ,  6-C ) :   0.8579 B(  4-C ,  7-C ) :   0.8670
B(  5-C , 15-H ) :   0.9382 B(  5-C , 16-H ) :   0.9278 B(  5-C , 17-H ) :   0.9419
B(  6-C ,  7-C ) :   0.9138 B(  6-C , 18-H ) :   0.9263 B(  6-C , 19-H ) :   0.9287
B(  7-C , 20-H ) :   0.9269 B(  7-C , 21-H ) :   0.9306

MP2 TOTAL ENERGY:     -312.465320219 Eh
FINAL SINGLE POINT ENERGY      -312.465320218903

DIPOLE MOMENT
-------------
                                X             Y             Z
Electronic contribution:      1.24309      -2.32350      -0.30639
Nuclear contribution   :     -1.27001       2.32520       0.28644
                        -----------------------------------------
Total Dipole Moment    :     -0.02691       0.00170      -0.01996
                        -----------------------------------------
Magnitude (a.u.)       :      0.03355
Magnitude (Debye)      :      0.08527

                             ****ORCA TERMINATED NORMALLY****
TOTAL RUN TIME: 0 days 0 hours 14 minutes 55 seconds 679 msec
