                         Program Version 3.0.3 - RELEASE   -
|  1> ! RI-MP2 RIJK def2-TZVP def2-TZVP/C def2-TZVP/JK TIGHTSCF
|  2> % maxcore 2000
|  3> % mp2 density relaxed end
|  4> *xyz 0 1
|  5>  C       -0.1774711642     0.7498065661    -2.0422561296
|  6>  N        0.0635022763    -0.2987923794    -1.0567785112
|  7>  C        1.3590722308    -0.3823045574    -0.3707857644
|  8>  C        2.4855161321     0.5947179398    -0.6274958988
|  9>  O        3.0805060646     0.4248833414    -1.9076526526
| 10>  C        0.1230354232     0.0320542432     0.3446738450
| 11>  C       -0.1932621717     1.3525111010     1.0575495157
| 12>  O       -0.8941380134     0.6367393562     2.0947316339
| 13>  C       -0.6790806258    -0.6418326137     1.4526267634
| 14>  H        0.1593581882     1.7526813539    -1.7430860636
| 15>  H        0.3364075227     0.4866745631    -2.9696396058
| 16>  H       -1.2526372810     0.8014193621    -2.2394571212
| 17>  H        1.6996838555    -1.4123120594    -0.2387565012
| 18>  H        2.1295916238     1.6280364888    -0.6053692724
| 19>  H        3.2309781404     0.4953140490     0.1777522997
| 20>  H        3.3952610997    -0.4831392138    -1.9692190943
| 21>  H        0.6584674143     1.9198821927     1.4537468415
| 22>  H       -0.8538053938     2.0386093584     0.5102918928
| 23>  H       -1.6158335290    -1.1063329165     1.1199336295
| 24>  H       -0.1331288727    -1.3399808154     2.0993894837
| 25> *
| 26>
| 27>                          ****END OF INPUT****

CARTESIAN COORDINATES (ANGSTROEM)
---------------------------------
  C     -0.177471    0.749807   -2.042256
  N      0.063502   -0.298792   -1.056779
  C      1.359072   -0.382305   -0.370786
  C      2.485516    0.594718   -0.627496
  O      3.080506    0.424883   -1.907653
  C      0.123035    0.032054    0.344674
  C     -0.193262    1.352511    1.057550
  O     -0.894138    0.636739    2.094732
  C     -0.679081   -0.641833    1.452627
  H      0.159358    1.752681   -1.743086
  H      0.336408    0.486675   -2.969640
  H     -1.252637    0.801419   -2.239457
  H      1.699684   -1.412312   -0.238757
  H      2.129592    1.628036   -0.605369
  H      3.230978    0.495314    0.177752
  H      3.395261   -0.483139   -1.969219
  H      0.658467    1.919882    1.453747
  H     -0.853805    2.038609    0.510292
  H     -1.615834   -1.106333    1.119934
  H     -0.133129   -1.339981    2.099389

 Total Charge           Charge          ....    0
 Multiplicity           Mult            ....    1
 Number of Electrons    NEL             ....   70
 Basis Dimension        Dim             ....  345

ORBITAL ENERGIES
----------------

  NO   OCC          E(Eh)            E(eV)
   0   2.0000     -20.566093      -559.6318
   1   2.0000     -20.553360      -559.2853
   2   2.0000     -15.566171      -423.5770
   3   2.0000     -11.290761      -307.2372
   4   2.0000     -11.287309      -307.1433
   5   2.0000     -11.280309      -306.9528
   6   2.0000     -11.275041      -306.8095
   7   2.0000     -11.267607      -306.6072
   8   2.0000     -11.249894      -306.1252
   9   2.0000      -1.384473       -37.6734
  10   2.0000      -1.370466       -37.2923
  11   2.0000      -1.280789       -34.8521
  12   2.0000      -1.018499       -27.7148
  13   2.0000      -0.975941       -26.5567
  14   2.0000      -0.947040       -25.7703
  15   2.0000      -0.923681       -25.1346
  16   2.0000      -0.804067       -21.8798
  17   2.0000      -0.743111       -20.2211
  18   2.0000      -0.704975       -19.1834
  19   2.0000      -0.683831       -18.6080
  20   2.0000      -0.675509       -18.3815
  21   2.0000      -0.669447       -18.2166
  22   2.0000      -0.607720       -16.5369
  23   2.0000      -0.594113       -16.1666
  24   2.0000      -0.590480       -16.0678
  25   2.0000      -0.573490       -15.6055
  26   2.0000      -0.559668       -15.2293
  27   2.0000      -0.549348       -14.9485
  28   2.0000      -0.528190       -14.3728
  29   2.0000      -0.498220       -13.5572
  30   2.0000      -0.465929       -12.6786
  31   2.0000      -0.453574       -12.3424
  32   2.0000      -0.436725       -11.8839
  33   2.0000      -0.415177       -11.2975
  34   2.0000      -0.372305       -10.1309
  35   0.0000       0.125261         3.4085
  36   0.0000       0.143331         3.9002
  37   0.0000       0.157563         4.2875
  38   0.0000       0.169788         4.6202
  39   0.0000       0.174865         4.7583

MULLIKEN ATOMIC CHARGES
-----------------------
   0 C :   -0.290799
   1 N :   -0.211474
   2 C :   -0.116951
   3 C :   -0.018950
   4 O :   -0.474507
   5 C :   -0.021765
   6 C :   -0.017071
   7 O :   -0.327364
   8 C :    0.005497
   9 H :    0.107578
  10 H :    0.147252
  11 H :    0.145663
  12 H :    0.119255
  13 H :    0.109710
  14 H :    0.118924
  15 H :    0.316327
  16 H :    0.104881
  17 H :    0.106117
  18 H :    0.100374
  19 H :    0.097303
Sum of atomic charges:    0.0000000

LOEWDIN ATOMIC CHARGES
----------------------
   0 C :   -0.319004
   1 N :    0.133252
   2 C :   -0.236669
   3 C :   -0.331025
   4 O :   -0.045678
   5 C :   -0.264147
   6 C :   -0.239268
   7 O :    0.115719
   8 C :   -0.224488
   9 H :    0.106656
  10 H :    0.123902
  11 H :    0.119586
  12 H :    0.142726
  13 H :    0.131988
  14 H :    0.126109
  15 H :    0.174382
  16 H :    0.120391
  17 H :    0.122390
  18 H :    0.123078
  19 H :    0.120101

  Mayer bond orders larger than 0.1
B(  0-C ,  1-N ) :   0.8785 B(  0-C ,  9-H ) :   0.9292 B(  0-C , 10-H ) :   0.9336
B(  0-C , 11-H ) :   0.9322 B(  1-N ,  2-C ) :   0.9753 B(  1-N ,  5-C ) :   0.8445
B(  2-C ,  3-C ) :   0.9453 B(  2-C ,  5-C ) :   0.9021 B(  2-C , 12-H ) :   0.8726
B(  3-C ,  4-O ) :   0.9097 B(  3-C , 13-H ) :   0.9283 B(  3-C , 14-H ) :   0.9270
B(  4-O , 15-H ) :   0.8470 B(  5-C ,  6-C ) :   0.9683 B(  5-C ,  8-C ) :   0.9605
B(  6-C ,  7-O ) :   0.9663 B(  6-C , 16-H ) :   0.9094 B(  6-C , 17-H ) :   0.9052
B(  7-O ,  8-C ) :   0.9563 B(  8-C , 18-H ) :   0.9052 B(  8-C , 19-H ) :   0.9128

MP2 TOTAL ENERGY:     -439.493931025 Eh
FINAL SINGLE POINT ENERGY      -439.493931024760

DIPOLE MOMENT
-------------
                                X             Y             Z
Electronic contribution:     -0.48759      -1.68152       2.50227
Nuclear contribution   :      0.99552       1.44500      -2.65364
                        -----------------------------------------
Total Dipole Moment    :      0.50793      -0.23652      -0.15137
                        -----------------------------------------
Magnitude (a.u.)       :      0.58039
Magnitude (Debye)      :      1.47522

                             ****ORCA TERMINATED NORMALLY****
TOTAL RUN TIME: 0 days 0 hours 16 minutes 35 seconds 849 msec
