                         Program Version 3.0.3 - RELEASE   -
|  1> ! RI-MP2 RIJK def2-TZVP def2-TZVP/C def2-TZVP/JK TIGHTSCF
|  2> % maxcore 2000
|  3> % mp2 density relaxed end
|  4> *xyz 0 1
|  5>  O        0.0162444106     0.0078580094     0.2836571671
|  6>  C       -0.0517948734     1.1800089909     0.0330368407
|  7>  C       -1.3473929250     1.9390302529    -0.1972536941
|  8>  N       -1.2802267488     3.1991133434    -0.9188677306
|  9>  C       -0.1478516370     3.6167912847    -1.3122934418
| 10>  N        1.0861725375     3.0121559007    -1.1320703175
| 11>  C        1.2426757978     2.0401918877    -0.0611359359
| 12>  C        1.5046153343     2.6707313102     1.2469817398
| 13>  N        1.7043073692     3.1875233835     2.2615234455
| 14>  H       -2.0367852863     1.2581975320    -0.7098315064
| 15>  H       -1.7962283470     2.1167889289     0.7916486320
| 16>  H       -0.0971871666     4.5363430006    -1.8957286185
| 17>  H        1.8942621340     3.5864712542    -1.3247314470
| 18>  H        2.0622535906     1.3523653708    -0.2857268734
| 19> *
| 20>
| 21>                          ****END OF INPUT****

CARTESIAN COORDINATES (ANGSTROEM)
---------------------------------
  O      0.016244    0.007858    0.283657
  C     -0.051795    1.180009    0.033037
  C     -1.347393    1.939030   -0.197254
  N     -1.280227    3.199113   -0.918868
  C     -0.147852    3.616791   -1.312293
  N      1.086173    3.012156   -1.132070
  C      1.242676    2.040192   -0.061136
  C      1.504615    2.670731    1.246982
  N      1.704307    3.187523    2.261523
  H     -2.036785    1.258198   -0.709832
  H     -1.796228    2.116789    0.791649
  H     -0.097187    4.536343   -1.895729
  H      1.894262    3.586471   -1.324731
  H      2.062254    1.352365   -0.285727

 Total Charge           Charge          ....    0
 Multiplicity           Mult            ....    1
 Number of Electrons    NEL             ....   64
 Basis Dimension        Dim             ....  309

ORBITAL ENERGIES
----------------

  NO   OCC          E(Eh)            E(eV)
   0   2.0000     -20.586163      -560.1780
   1   2.0000     -15.625962      -425.2040
   2   2.0000     -15.598941      -424.4688
   3   2.0000     -15.568944      -423.6525
   4   2.0000     -11.372302      -309.4561
   5   2.0000     -11.353818      -308.9531
   6   2.0000     -11.341502      -308.6180
   7   2.0000     -11.297277      -307.4145
   8   2.0000     -11.287431      -307.1466
   9   2.0000      -1.433313       -39.0024
  10   2.0000      -1.326511       -36.0962
  11   2.0000      -1.244455       -33.8633
  12   2.0000      -1.214649       -33.0523
  13   2.0000      -1.076887       -29.3036
  14   2.0000      -0.987476       -26.8706
  15   2.0000      -0.869595       -23.6629
  16   2.0000      -0.803702       -21.8698
  17   2.0000      -0.758933       -20.6516
  18   2.0000      -0.727403       -19.7937
  19   2.0000      -0.714574       -19.4445
  20   2.0000      -0.667026       -18.1507
  21   2.0000      -0.646006       -17.5787
  22   2.0000      -0.626204       -17.0399
  23   2.0000      -0.589826       -16.0500
  24   2.0000      -0.583539       -15.8789
  25   2.0000      -0.563378       -15.3303
  26   2.0000      -0.520535       -14.1645
  27   2.0000      -0.508555       -13.8385
  28   2.0000      -0.490907       -13.3582
  29   2.0000      -0.474228       -12.9044
  30   2.0000      -0.415026       -11.2934
  31   2.0000      -0.392222       -10.6729
  32   0.0000       0.093127         2.5341
  33   0.0000       0.107223         2.9177
  34   0.0000       0.131760         3.5854
  35   0.0000       0.146910         3.9976
  36   0.0000       0.157765         4.2930

MULLIKEN ATOMIC CHARGES
-----------------------
   0 O :   -0.240408
   1 C :    0.136079
   2 C :   -0.135842
   3 N :   -0.273675
   4 C :    0.062158
   5 N :   -0.343926
   6 C :    0.206166
   7 C :   -0.238322
   8 N :   -0.046383
   9 H :    0.159214
  10 H :    0.164077
  11 H :    0.141073
  12 H :    0.248657
  13 H :    0.161132
Sum of atomic charges:   -0.0000000

LOEWDIN ATOMIC CHARGES
----------------------
   0 O :    0.191921
   1 C :   -0.285175
   2 C :   -0.261180
   3 N :    0.070759
   4 C :   -0.321606
   5 N :    0.092008
   6 C :   -0.239336
   7 C :   -0.165144
   8 N :    0.083410
   9 H :    0.158379
  10 H :    0.163726
  11 H :    0.139968
  12 H :    0.192452
  13 H :    0.179819

  Mayer bond orders larger than 0.1
B(  0-O ,  1-C ) :   2.0311 B(  1-C ,  2-C ) :   0.9272 B(  1-C ,  6-C ) :   0.8140
B(  2-C ,  3-N ) :   0.9272 B(  2-C ,  9-H ) :   0.9108 B(  2-C , 10-H ) :   0.8914
B(  3-N ,  4-C ) :   1.8263 B(  4-C ,  5-N ) :   1.0703 B(  4-C , 11-H ) :   0.9174
B(  5-N ,  6-C ) :   0.8707 B(  5-N , 12-H ) :   0.8671 B(  6-C ,  7-C ) :   0.9184
B(  6-C , 13-H ) :   0.9059 B(  7-C ,  8-N ) :   2.8250

MP2 TOTAL ENERGY:     -432.164808956 Eh
FINAL SINGLE POINT ENERGY      -432.164808955694

DIPOLE MOMENT
-------------
                                X             Y             Z
Electronic contribution:      1.90488      -1.01767       2.02772
Nuclear contribution   :     -1.34207       1.28299      -3.22821
                        -----------------------------------------
Total Dipole Moment    :      0.56281       0.26533      -1.20049
                        -----------------------------------------
Magnitude (a.u.)       :      1.35216
Magnitude (Debye)      :      3.43691

                             ****ORCA TERMINATED NORMALLY****
TOTAL RUN TIME: 0 days 0 hours 14 minutes 5 seconds 455 msec
