                         Program Version 3.0.3 - RELEASE   -
|  1> ! RI-MP2 RIJK def2-TZVP def2-TZVP/C def2-TZVP/JK TIGHTSCF
|  2> % maxcore 2000
|  3> % mp2 density relaxed end
|  4> *xyz 0 1
|  5>  O        0.1053364143     1.2993812992     0.3318606628
|  6>  C       -0.0047642227    -0.0502695833    -0.0694983787
|  7>  C       -1.4599152534    -0.5195476525    -0.0640313491
|  8>  C       -1.7715390711    -2.0512954149    -0.1703671543
|  9>  C       -2.6999238154    -1.9505120520     1.0788867665
| 10>  O       -2.4774266665    -2.9152082776     2.0732718853
| 11>  C       -2.1130961029    -0.5670639948     1.3018693179
| 12>  N       -1.9493055929     0.1931243456     2.3022053846
| 13>  O       -2.6145232901    -0.3288815844     3.4394649543
| 14>  H       -0.2794745181     1.3594054072     1.2164974867
| 15>  H        0.4097443833    -0.1150828060    -1.0814254283
| 16>  H        0.5898744340    -0.7172342871     0.5757530409
| 17>  H       -2.0398460652     0.0801284386    -0.7735433288
| 18>  H       -2.2296795023    -2.4021694559    -1.0950905464
| 19>  H       -0.8972978890    -2.6624535335     0.0656927032
| 20>  H       -3.7614613652    -1.8916278165     0.7898353617
| 21>  H       -2.6950136354    -2.5003181741     2.9169726486
| 22>  H       -2.3833486916     0.3022490819     4.1291487429
| 23> *
| 24>
| 25>                          ****END OF INPUT****

CARTESIAN COORDINATES (ANGSTROEM)
---------------------------------
  O      0.105336    1.299381    0.331861
  C     -0.004764   -0.050270   -0.069498
  C     -1.459915   -0.519548   -0.064031
  C     -1.771539   -2.051295   -0.170367
  C     -2.699924   -1.950512    1.078887
  O     -2.477427   -2.915208    2.073272
  C     -2.113096   -0.567064    1.301869
  N     -1.949306    0.193124    2.302205
  O     -2.614523   -0.328882    3.439465
  H     -0.279475    1.359405    1.216497
  H      0.409744   -0.115083   -1.081425
  H      0.589874   -0.717234    0.575753
  H     -2.039846    0.080128   -0.773543
  H     -2.229680   -2.402169   -1.095091
  H     -0.897298   -2.662454    0.065693
  H     -3.761461   -1.891628    0.789835
  H     -2.695014   -2.500318    2.916973
  H     -2.383349    0.302249    4.129149

 Total Charge           Charge          ....    0
 Multiplicity           Mult            ....    1
 Number of Electrons    NEL             ....   70
 Basis Dimension        Dim             ....  333

ORBITAL ENERGIES
----------------

  NO   OCC          E(Eh)            E(eV)
   0   2.0000     -20.612495      -560.8945
   1   2.0000     -20.565910      -559.6269
   2   2.0000     -20.551029      -559.2219
   3   2.0000     -15.634811      -425.4448
   4   2.0000     -11.305811      -307.6468
   5   2.0000     -11.291055      -307.2452
   6   2.0000     -11.282801      -307.0206
   7   2.0000     -11.253282      -306.2174
   8   2.0000     -11.244532      -305.9793
   9   2.0000      -1.435090       -39.0508
  10   2.0000      -1.376147       -37.4469
  11   2.0000      -1.359277       -36.9878
  12   2.0000      -1.197672       -32.5903
  13   2.0000      -1.105309       -30.0770
  14   2.0000      -0.975345       -26.5405
  15   2.0000      -0.865251       -23.5447
  16   2.0000      -0.858610       -23.3640
  17   2.0000      -0.749010       -20.3816
  18   2.0000      -0.736785       -20.0489
  19   2.0000      -0.703600       -19.1459
  20   2.0000      -0.689916       -18.7736
  21   2.0000      -0.684773       -18.6336
  22   2.0000      -0.625555       -17.0222
  23   2.0000      -0.613861       -16.7040
  24   2.0000      -0.599261       -16.3067
  25   2.0000      -0.583802       -15.8861
  26   2.0000      -0.572298       -15.5730
  27   2.0000      -0.534995       -14.5579
  28   2.0000      -0.525736       -14.3060
  29   2.0000      -0.504710       -13.7338
  30   2.0000      -0.499842       -13.6014
  31   2.0000      -0.460911       -12.5420
  32   2.0000      -0.448173       -12.1954
  33   2.0000      -0.421227       -11.4622
  34   2.0000      -0.402358       -10.9487
  35   0.0000       0.115866         3.1529
  36   0.0000       0.133501         3.6327
  37   0.0000       0.158135         4.3031
  38   0.0000       0.160424         4.3654
  39   0.0000       0.170453         4.6383

MULLIKEN ATOMIC CHARGES
-----------------------
   0 O :   -0.475495
   1 C :   -0.046113
   2 C :   -0.058583
   3 C :   -0.240922
   4 C :    0.118723
   5 O :   -0.469405
   6 C :    0.004426
   7 N :   -0.150868
   8 O :   -0.398359
   9 H :    0.327584
  10 H :    0.117122
  11 H :    0.101217
  12 H :    0.120391
  13 H :    0.136433
  14 H :    0.125750
  15 H :    0.103552
  16 H :    0.339427
  17 H :    0.345122
Sum of atomic charges:    0.0000000

LOEWDIN ATOMIC CHARGES
----------------------
   0 O :   -0.039669
   1 C :   -0.327999
   2 C :   -0.199767
   3 C :   -0.173770
   4 C :   -0.296084
   5 O :   -0.009115
   6 C :   -0.244255
   7 N :    0.019002
   8 O :   -0.083628
   9 H :    0.171389
  10 H :    0.130734
  11 H :    0.121287
  12 H :    0.160797
  13 H :    0.129799
  14 H :    0.145313
  15 H :    0.142555
  16 H :    0.180351
  17 H :    0.173061

  Mayer bond orders larger than 0.1
B(  0-O ,  1-C ) :   0.9407 B(  0-O ,  9-H ) :   0.8276 B(  1-C ,  2-C ) :   0.8961
B(  1-C , 10-H ) :   0.9311 B(  1-C , 11-H ) :   0.9223 B(  2-C ,  3-C ) :   0.9204
B(  2-C ,  6-C ) :   0.9087 B(  2-C , 12-H ) :   0.8978 B(  3-C ,  4-C ) :   0.9041
B(  3-C , 13-H ) :   0.9268 B(  3-C , 14-H ) :   0.9005 B(  4-C ,  5-O ) :   1.0501
B(  4-C ,  6-C ) :   0.9178 B(  4-C , 15-H ) :   0.9495 B(  5-O , 16-H ) :   0.8236
B(  6-C ,  7-N ) :   1.7654 B(  7-N ,  8-O ) :   0.7935 B(  8-O , 17-H ) :   0.8393

MP2 TOTAL ENERGY:     -475.411771832 Eh
FINAL SINGLE POINT ENERGY      -475.411771832009

DIPOLE MOMENT
-------------
                                X             Y             Z
Electronic contribution:     -1.96090       1.55324       4.06995
Nuclear contribution   :      1.51587      -1.65062      -3.77522
                        -----------------------------------------
Total Dipole Moment    :     -0.44503      -0.09738       0.29472
                        -----------------------------------------
Magnitude (a.u.)       :      0.54258
Magnitude (Debye)      :      1.37913

                             ****ORCA TERMINATED NORMALLY****
TOTAL RUN TIME: 0 days 0 hours 14 minutes 57 seconds 709 msec
