                         Program Version 3.0.3 - RELEASE   -
|  1> ! RI-MP2 RIJK def2-TZVP def2-TZVP/C def2-TZVP/JK TIGHTSCF
|  2> % maxcore 2000
|  3> % mp2 density relaxed end
|  4> *xyz 0 1
|  5>  C       -0.6430617565     1.3409455075     0.1311085352
|  6>  C        0.1585449092     0.0497040635    -0.0206388984
|  7>  C        1.3361547581     0.1093725869    -1.0060478284
|  8>  C        2.2489283047    -0.9959631257    -0.5284255990
|  9>  N        3.1554439451    -1.5609023329    -1.1947641100
| 10>  O        1.9219159485    -1.3184156180     0.7686704519
| 11>  C        0.8872807600    -0.4715549937     1.2534465378
| 12>  C        1.4650259284     0.6610112528     2.0951029255
| 13>  O        2.6048765215     1.0355811289     2.0286237271
| 14>  H       -0.0027440608     2.1869931146     0.4022610274
| 15>  H       -1.1349862397     1.5912702402    -0.8133569709
| 16>  H       -1.4234324299     1.2462537480     0.8935671747
| 17>  H       -0.5180272058    -0.7533900962    -0.3350119169
| 18>  H        1.0545774422    -0.0340686628    -2.0494627962
| 19>  H        1.8641357433     1.0670618907    -0.9273766344
| 20>  H        3.6343219734    -2.2636711826    -0.6288565285
| 21>  H        0.2228504908    -1.0688680491     1.8886207330
| 22>  H        0.7300697977     1.1387431179     2.7821306701
| 23> *
| 24>
| 25>                          ****END OF INPUT****

CARTESIAN COORDINATES (ANGSTROEM)
---------------------------------
  C     -0.643062    1.340946    0.131109
  C      0.158545    0.049704   -0.020639
  C      1.336155    0.109373   -1.006048
  C      2.248928   -0.995963   -0.528426
  N      3.155444   -1.560902   -1.194764
  O      1.921916   -1.318416    0.768670
  C      0.887281   -0.471555    1.253447
  C      1.465026    0.661011    2.095103
  O      2.604877    1.035581    2.028624
  H     -0.002744    2.186993    0.402261
  H     -1.134986    1.591270   -0.813357
  H     -1.423432    1.246254    0.893567
  H     -0.518027   -0.753390   -0.335012
  H      1.054577   -0.034069   -2.049463
  H      1.864136    1.067062   -0.927377
  H      3.634322   -2.263671   -0.628857
  H      0.222850   -1.068868    1.888621
  H      0.730070    1.138743    2.782131

 Total Charge           Charge          ....    0
 Multiplicity           Mult            ....    1
 Number of Electrons    NEL             ....   68
 Basis Dimension        Dim             ....  333

ORBITAL ENERGIES
----------------

  NO   OCC          E(Eh)            E(eV)
   0   2.0000     -20.600339      -560.5637
   1   2.0000     -20.574950      -559.8729
   2   2.0000     -15.530389      -422.6034
   3   2.0000     -11.346431      -308.7521
   4   2.0000     -11.337672      -308.5137
   5   2.0000     -11.318990      -308.0054
   6   2.0000     -11.269174      -306.6498
   7   2.0000     -11.248478      -306.0866
   8   2.0000     -11.246948      -306.0450
   9   2.0000      -1.443695       -39.2849
  10   2.0000      -1.408404       -38.3246
  11   2.0000      -1.197155       -32.5762
  12   2.0000      -1.118442       -30.4344
  13   2.0000      -1.008531       -27.4435
  14   2.0000      -0.976072       -26.5603
  15   2.0000      -0.859557       -23.3897
  16   2.0000      -0.808050       -21.9882
  17   2.0000      -0.763127       -20.7657
  18   2.0000      -0.730353       -19.8739
  19   2.0000      -0.687311       -18.7027
  20   2.0000      -0.685936       -18.6653
  21   2.0000      -0.645282       -17.5590
  22   2.0000      -0.630731       -17.1631
  23   2.0000      -0.605715       -16.4823
  24   2.0000      -0.594702       -16.1827
  25   2.0000      -0.554938       -15.1006
  26   2.0000      -0.544533       -14.8175
  27   2.0000      -0.536752       -14.6058
  28   2.0000      -0.527424       -14.3519
  29   2.0000      -0.510194       -13.8831
  30   2.0000      -0.486747       -13.2451
  31   2.0000      -0.438121       -11.9219
  32   2.0000      -0.431195       -11.7334
  33   2.0000      -0.397174       -10.8077
  34   0.0000       0.105617         2.8740
  35   0.0000       0.125379         3.4117
  36   0.0000       0.148811         4.0494
  37   0.0000       0.154684         4.2092
  38   0.0000       0.169090         4.6012

MULLIKEN ATOMIC CHARGES
-----------------------
   0 C :   -0.432849
   1 C :   -0.103902
   2 C :   -0.182397
   3 C :    0.109397
   4 N :   -0.366052
   5 O :   -0.257856
   6 C :    0.145627
   7 C :    0.044983
   8 O :   -0.243421
   9 H :    0.145295
  10 H :    0.148968
  11 H :    0.143846
  12 H :    0.115723
  13 H :    0.147015
  14 H :    0.140097
  15 H :    0.225857
  16 H :    0.131915
  17 H :    0.087755
Sum of atomic charges:    0.0000000

LOEWDIN ATOMIC CHARGES
----------------------
   0 C :   -0.288841
   1 C :   -0.243972
   2 C :   -0.190269
   3 C :   -0.394008
   4 N :   -0.052857
   5 O :    0.266941
   6 C :   -0.275265
   7 C :   -0.277486
   8 O :    0.157307
   9 H :    0.128759
  10 H :    0.131379
  11 H :    0.127228
  12 H :    0.159939
  13 H :    0.153307
  14 H :    0.159579
  15 H :    0.170296
  16 H :    0.153172
  17 H :    0.114792

  Mayer bond orders larger than 0.1
B(  0-C ,  1-C ) :   0.9085 B(  0-C ,  9-H ) :   0.9255 B(  0-C , 10-H ) :   0.9351
B(  0-C , 11-H ) :   0.9418 B(  1-C ,  2-C ) :   0.9493 B(  1-C ,  6-C ) :   0.8995
B(  1-C , 12-H ) :   0.9217 B(  2-C ,  3-C ) :   0.9223 B(  2-C , 13-H ) :   0.9152
B(  2-C , 14-H ) :   0.9025 B(  3-C ,  4-N ) :   2.0790 B(  3-C ,  5-O ) :   1.0561
B(  4-N , 15-H ) :   0.8549 B(  5-O ,  6-C ) :   0.9073 B(  6-C ,  7-C ) :   0.8298
B(  6-C , 16-H ) :   0.9022 B(  7-C ,  8-O ) :   2.0119 B(  7-C , 17-H ) :   0.9334

MP2 TOTAL ENERGY:     -438.391158480 Eh
FINAL SINGLE POINT ENERGY      -438.391158479521

DIPOLE MOMENT
-------------
                                X             Y             Z
Electronic contribution:      6.45421      -3.64553       2.74828
Nuclear contribution   :     -8.20482       3.90045      -2.31913
                        -----------------------------------------
Total Dipole Moment    :     -1.75062       0.25492       0.42915
                        -----------------------------------------
Magnitude (a.u.)       :      1.82039
Magnitude (Debye)      :      4.62706

                             ****ORCA TERMINATED NORMALLY****
TOTAL RUN TIME: 0 days 0 hours 17 minutes 2 seconds 682 msec
