                         Program Version 3.0.3 - RELEASE   -
|  1> ! RI-MP2 RIJK def2-TZVP def2-TZVP/C def2-TZVP/JK TIGHTSCF
|  2> % maxcore 2000
|  3> % mp2 density relaxed end
|  4> *xyz 0 1
|  5>  C       -0.4518971270     1.5252200707     0.2486207361
|  6>  C        0.0992308816     0.1353049953     0.0027234017
|  7>  C        0.8924617324    -0.0991078948    -1.3061107149
|  8>  C        2.0674556163    -0.3384868823    -0.3667974436
|  9>  C        3.1739239760    -1.3396967105    -0.4199324128
| 10>  C        3.4729275812     0.1583652127    -0.4670757745
| 11>  C        3.9472147159     0.8148371399    -1.7409029528
| 12>  O        3.4283570449     2.1303782559    -1.9140717759
| 13>  O        1.2844576379    -0.1342300855     0.8068104858
| 14>  H        0.3037991665     2.2837944540     0.0224924082
| 15>  H       -1.3278323290     1.7066291902    -0.3842277493
| 16>  H       -0.7553335145     1.6380136378     1.2941987995
| 17>  H       -0.6664907902    -0.6250086518     0.2010747914
| 18>  H        0.5759425861    -0.9610282196    -1.8965456160
| 19>  H        0.9924372006     0.7782212699    -1.9479069512
| 20>  H        3.4140256513    -1.8666914229     0.4971975104
| 21>  H        3.3069660540    -1.9219297311    -1.3275296976
| 22>  H        3.8780587867     0.5763163194     0.4530671367
| 23>  H        5.0476753204     0.8149136297    -1.7868521518
| 24>  H        3.5918020991     0.2478325967    -2.6081054908
| 25>  H        3.6916498100     2.6513863062    -1.1487334987
| 26> *
| 27>
| 28>                          ****END OF INPUT****

CARTESIAN COORDINATES (ANGSTROEM)
---------------------------------
  C     -0.451897    1.525220    0.248621
  C      0.099231    0.135305    0.002723
  C      0.892462   -0.099108   -1.306111
  C      2.067456   -0.338487   -0.366797
  C      3.173924   -1.339697   -0.419932
  C      3.472928    0.158365   -0.467076
  C      3.947215    0.814837   -1.740903
  O      3.428357    2.130378   -1.914072
  O      1.284458   -0.134230    0.806810
  H      0.303799    2.283794    0.022492
  H     -1.327832    1.706629   -0.384228
  H     -0.755334    1.638014    1.294199
  H     -0.666491   -0.625009    0.201075
  H      0.575943   -0.961028   -1.896546
  H      0.992437    0.778221   -1.947907
  H      3.414026   -1.866691    0.497198
  H      3.306966   -1.921930   -1.327530
  H      3.878059    0.576316    0.453067
  H      5.047675    0.814914   -1.786852
  H      3.591802    0.247833   -2.608105
  H      3.691650    2.651386   -1.148733

 Total Charge           Charge          ....    0
 Multiplicity           Mult            ....    1
 Number of Electrons    NEL             ....   70
 Basis Dimension        Dim             ....  351

ORBITAL ENERGIES
----------------

  NO   OCC          E(Eh)            E(eV)
   0   2.0000     -20.556619      -559.3741
   1   2.0000     -20.545068      -559.0597
   2   2.0000     -11.286116      -307.1108
   3   2.0000     -11.282460      -307.0113
   4   2.0000     -11.280155      -306.9486
   5   2.0000     -11.229053      -305.5581
   6   2.0000     -11.227299      -305.5104
   7   2.0000     -11.226245      -305.4816
   8   2.0000     -11.214867      -305.1720
   9   2.0000      -1.380435       -37.5636
  10   2.0000      -1.359481       -36.9934
  11   2.0000      -1.138519       -30.9807
  12   2.0000      -1.031227       -28.0611
  13   2.0000      -0.965393       -26.2697
  14   2.0000      -0.939239       -25.5580
  15   2.0000      -0.824603       -22.4386
  16   2.0000      -0.800184       -21.7741
  17   2.0000      -0.729486       -19.8503
  18   2.0000      -0.690624       -18.7928
  19   2.0000      -0.674053       -18.3419
  20   2.0000      -0.667882       -18.1740
  21   2.0000      -0.631840       -17.1932
  22   2.0000      -0.602446       -16.3934
  23   2.0000      -0.595374       -16.2009
  24   2.0000      -0.564727       -15.3670
  25   2.0000      -0.559246       -15.2179
  26   2.0000      -0.540865       -14.7177
  27   2.0000      -0.517744       -14.0885
  28   2.0000      -0.502303       -13.6684
  29   2.0000      -0.495049       -13.4710
  30   2.0000      -0.480370       -13.0715
  31   2.0000      -0.461914       -12.5693
  32   2.0000      -0.452230       -12.3058
  33   2.0000      -0.404856       -11.0167
  34   2.0000      -0.366479        -9.9724
  35   0.0000       0.131637         3.5820
  36   0.0000       0.147967         4.0264
  37   0.0000       0.155272         4.2252
  38   0.0000       0.175967         4.7883
  39   0.0000       0.185531         5.0486

MULLIKEN ATOMIC CHARGES
-----------------------
   0 C :   -0.420365
   1 C :    0.146652
   2 C :   -0.287933
   3 C :    0.203184
   4 C :   -0.312007
   5 C :   -0.165515
   6 C :   -0.028342
   7 O :   -0.478837
   8 O :   -0.331563
   9 H :    0.131934
  10 H :    0.125825
  11 H :    0.135771
  12 H :    0.089688
  13 H :    0.125598
  14 H :    0.144537
  15 H :    0.136956
  16 H :    0.127238
  17 H :    0.125004
  18 H :    0.113612
  19 H :    0.105007
  20 H :    0.313557
Sum of atomic charges:   -0.0000000

LOEWDIN ATOMIC CHARGES
----------------------
   0 C :   -0.297452
   1 C :   -0.284403
   2 C :   -0.180277
   3 C :   -0.293435
   4 C :   -0.185452
   5 C :   -0.211212
   6 C :   -0.326616
   7 O :   -0.052944
   8 O :    0.183481
   9 H :    0.127001
  10 H :    0.127418
  11 H :    0.127393
  12 H :    0.133094
  13 H :    0.133796
  14 H :    0.142995
  15 H :    0.140824
  16 H :    0.135941
  17 H :    0.151765
  18 H :    0.121313
  19 H :    0.133822
  20 H :    0.172947

  Mayer bond orders larger than 0.1
B(  0-C ,  1-C ) :   0.9059 B(  0-C ,  9-H ) :   0.9391 B(  0-C , 10-H ) :   0.9290
B(  0-C , 11-H ) :   0.9362 B(  1-C ,  2-C ) :   0.9558 B(  1-C ,  8-O ) :   0.8982
B(  1-C , 12-H ) :   0.9159 B(  2-C ,  3-C ) :   0.9391 B(  2-C , 13-H ) :   0.9157
B(  2-C , 14-H ) :   0.9129 B(  3-C ,  4-C ) :   0.8696 B(  3-C ,  5-C ) :   0.8084
B(  3-C ,  8-O ) :   0.9799 B(  4-C ,  5-C ) :   0.9216 B(  4-C , 15-H ) :   0.9095
B(  4-C , 16-H ) :   0.9102 B(  5-C ,  6-C ) :   0.9317 B(  5-C , 17-H ) :   0.9151
B(  6-C ,  7-O ) :   0.9180 B(  6-C , 18-H ) :   0.9332 B(  6-C , 19-H ) :   0.9189
B(  7-O , 20-H ) :   0.8474

MP2 TOTAL ENERGY:     -423.485274736 Eh
FINAL SINGLE POINT ENERGY      -423.485274735627

DIPOLE MOMENT
-------------
                                X             Y             Z
Electronic contribution:      1.88172      -0.92947       1.38063
Nuclear contribution   :     -1.80302       0.83196      -1.50476
                        -----------------------------------------
Total Dipole Moment    :      0.07869      -0.09751      -0.12413
                        -----------------------------------------
Magnitude (a.u.)       :      0.17638
Magnitude (Debye)      :      0.44831

                             ****ORCA TERMINATED NORMALLY****
TOTAL RUN TIME: 0 days 0 hours 27 minutes 53 seconds 228 msec
