                         Program Version 3.0.3 - RELEASE   -
|  1> ! RI-MP2 RIJK def2-TZVP def2-TZVP/C def2-TZVP/JK TIGHTSCF
|  2> % maxcore 2000
|  3> % mp2 density relaxed end
|  4> *xyz 0 1
|  5>  C        0.0322407309     1.4169454472     0.0534966774
|  6>  O        0.0664456060    -0.0124595625     0.0578349286
|  7>  C        0.5681727619    -0.5770627140    -1.0683650574
|  8>  C       -0.0156413764    -0.9616554991    -2.2492299228
|  9>  C       -1.4419003887    -0.8126790159    -2.6657423476
| 10>  N        0.9350093650    -1.5620668437    -3.0495225018
| 11>  C        2.0531665430    -1.5392650340    -2.3623540505
| 12>  N        1.9015316322    -0.9515236409    -1.1406753490
| 13>  C        2.9032927744    -0.7584028043    -0.1139875251
| 14>  H        1.0424524028     1.8410872479    -0.0078174307
| 15>  H       -0.5625016660     1.7921324787    -0.7867439386
| 16>  H       -0.4301956290     1.7201094190     0.9950644176
| 17>  H       -1.5487105198    -0.1142013957    -3.5037955760
| 18>  H       -1.8529093052    -1.7731067123    -2.9935132666
| 19>  H       -2.0500581557    -0.4462249215    -1.8338593985
| 20>  H        3.0041607763    -1.9392320280    -2.6843710382
| 21>  H        3.3445447919     0.2438742289    -0.1591115094
| 22>  H        2.4480419830    -0.8946107522     0.8692065203
| 23>  H        3.6983819134    -1.4956051776    -0.2428535817
| 24> *
| 25>
| 26>                          ****END OF INPUT****

CARTESIAN COORDINATES (ANGSTROEM)
---------------------------------
  C      0.032241    1.416945    0.053497
  O      0.066446   -0.012460    0.057835
  C      0.568173   -0.577063   -1.068365
  C     -0.015641   -0.961655   -2.249230
  C     -1.441900   -0.812679   -2.665742
  N      0.935009   -1.562067   -3.049523
  C      2.053167   -1.539265   -2.362354
  N      1.901532   -0.951524   -1.140675
  C      2.903293   -0.758403   -0.113988
  H      1.042452    1.841087   -0.007817
  H     -0.562502    1.792132   -0.786744
  H     -0.430196    1.720109    0.995064
  H     -1.548711   -0.114201   -3.503796
  H     -1.852909   -1.773107   -2.993513
  H     -2.050058   -0.446225   -1.833859
  H      3.004161   -1.939232   -2.684371
  H      3.344545    0.243874   -0.159112
  H      2.448042   -0.894611    0.869207
  H      3.698382   -1.495605   -0.242854

 Total Charge           Charge          ....    0
 Multiplicity           Mult            ....    1
 Number of Electrons    NEL             ....   68
 Basis Dimension        Dim             ....  339

ORBITAL ENERGIES
----------------

  NO   OCC          E(Eh)            E(eV)
   0   2.0000     -20.586486      -560.1868
   1   2.0000     -15.611596      -424.8131
   2   2.0000     -15.532983      -422.6740
   3   2.0000     -11.299634      -307.4787
   4   2.0000     -11.288989      -307.1890
   5   2.0000     -11.283461      -307.0386
   6   2.0000     -11.279990      -306.9441
   7   2.0000     -11.235052      -305.7213
   8   2.0000     -11.211363      -305.0767
   9   2.0000      -1.416551       -38.5463
  10   2.0000      -1.326860       -36.1057
  11   2.0000      -1.178276       -32.0625
  12   2.0000      -1.025982       -27.9184
  13   2.0000      -0.984738       -26.7961
  14   2.0000      -0.950164       -25.8553
  15   2.0000      -0.906415       -24.6648
  16   2.0000      -0.794875       -21.6296
  17   2.0000      -0.765170       -20.8213
  18   2.0000      -0.706608       -19.2278
  19   2.0000      -0.666754       -18.1433
  20   2.0000      -0.653358       -17.7788
  21   2.0000      -0.648611       -17.6496
  22   2.0000      -0.621075       -16.9003
  23   2.0000      -0.597240       -16.2517
  24   2.0000      -0.576682       -15.6923
  25   2.0000      -0.568303       -15.4643
  26   2.0000      -0.536692       -14.6041
  27   2.0000      -0.532446       -14.4886
  28   2.0000      -0.523974       -14.2581
  29   2.0000      -0.515415       -14.0251
  30   2.0000      -0.475660       -12.9434
  31   2.0000      -0.417299       -11.3553
  32   2.0000      -0.373463       -10.1624
  33   2.0000      -0.296749        -8.0750
  34   0.0000       0.125446         3.4136
  35   0.0000       0.149920         4.0795
  36   0.0000       0.161788         4.4025
  37   0.0000       0.179882         4.8948
  38   0.0000       0.181196         4.9306

MULLIKEN ATOMIC CHARGES
-----------------------
   0 C :   -0.199972
   1 O :   -0.331698
   2 C :    0.150835
   3 C :    0.065108
   4 C :   -0.440614
   5 N :   -0.294376
   6 C :   -0.012347
   7 N :   -0.031900
   8 C :   -0.343078
   9 H :    0.118237
  10 H :    0.135278
  11 H :    0.143625
  12 H :    0.139664
  13 H :    0.146045
  14 H :    0.140760
  15 H :    0.142564
  16 H :    0.146830
  17 H :    0.169705
  18 H :    0.155333
Sum of atomic charges:   -0.0000000

LOEWDIN ATOMIC CHARGES
----------------------
   0 C :   -0.319559
   1 O :    0.203252
   2 C :   -0.321359
   3 C :   -0.274129
   4 C :   -0.277639
   5 N :    0.105034
   6 C :   -0.309900
   7 N :    0.233247
   8 C :   -0.271460
   9 H :    0.103748
  10 H :    0.109655
  11 H :    0.114661
  12 H :    0.129900
  13 H :    0.133644
  14 H :    0.130423
  15 H :    0.129891
  16 H :    0.120111
  17 H :    0.131222
  18 H :    0.129258

  Mayer bond orders larger than 0.1
B(  0-C ,  1-O ) :   0.8561 B(  0-C ,  9-H ) :   0.9346 B(  0-C , 10-H ) :   0.9344
B(  0-C , 11-H ) :   0.9380 B(  1-O ,  2-C ) :   1.0157 B(  2-C ,  3-C ) :   1.4844
B(  2-C ,  7-N ) :   1.1123 B(  3-C ,  4-C ) :   0.8565 B(  3-C ,  5-N ) :   1.2780
B(  4-C , 12-H ) :   0.9332 B(  4-C , 13-H ) :   0.9386 B(  4-C , 14-H ) :   0.9573
B(  5-N ,  6-C ) :   1.5652 B(  6-C ,  7-N ) :   1.1631 B(  6-C , 15-H ) :   0.9240
B(  7-N ,  8-C ) :   0.8590 B(  8-C , 16-H ) :   0.9280 B(  8-C , 17-H ) :   0.9295
B(  8-C , 18-H ) :   0.9313

MP2 TOTAL ENERGY:     -418.523361926 Eh
FINAL SINGLE POINT ENERGY      -418.523361926122

DIPOLE MOMENT
-------------
                                X             Y             Z
Electronic contribution:      1.28656      -3.71413      -1.76273
Nuclear contribution   :     -0.57546       4.60133       2.88414
                        -----------------------------------------
Total Dipole Moment    :      0.71110       0.88720       1.12141
                        -----------------------------------------
Magnitude (a.u.)       :      1.59698
Magnitude (Debye)      :      4.05920

                             ****ORCA TERMINATED NORMALLY****
TOTAL RUN TIME: 0 days 0 hours 18 minutes 1 seconds 17 msec
