                         Program Version 3.0.3 - RELEASE   -
|  1> ! RI-MP2 RIJK def2-TZVP def2-TZVP/C def2-TZVP/JK TIGHTSCF
|  2> % maxcore 2000
|  3> % mp2 density relaxed end
|  4> *xyz 0 1
|  5>  C       -0.0473330142     1.5432371295    -0.0882299231
|  6>  C        1.4207548424     2.0151133730     0.1011700929
|  7>  C        2.2238927935     0.7284232770     0.3358685388
|  8>  O        2.1575612247     0.3362858908     1.7326474070
|  9>  C        1.2817635633    -0.7785713883     1.7663502045
| 10>  C        1.7046367269    -1.6066826862     0.5518905434
| 11>  C        1.4382752004    -0.4094468223    -0.3662267072
| 12>  C        0.0060565147     0.0155555127     0.0497137054
| 13>  O       -0.0385688658    -0.3696135707     1.4492936039
| 14>  H       -0.7341019090     1.9620086816     0.6502702013
| 15>  H       -0.4241446741     1.8144778544    -1.0798630800
| 16>  H        1.7896245263     2.5259987184    -0.7942782238
| 17>  H        1.5498930898     2.6961651540     0.9449089621
| 18>  H        3.2775056851     0.8125383895     0.0522175565
| 19>  H        1.2924388383    -1.2124444376     2.7645016488
| 20>  H        2.7503785921    -1.9184848503     0.5881232448
| 21>  H        1.0535457388    -2.4638931274     0.3691889663
| 22>  H        1.6100755990    -0.5142495366    -1.4366827106
| 23>  H       -0.8047726023    -0.4996052514    -0.4744983910
| 24> *
| 25>
| 26>                          ****END OF INPUT****

CARTESIAN COORDINATES (ANGSTROEM)
---------------------------------
  C     -0.047333    1.543237   -0.088230
  C      1.420755    2.015113    0.101170
  C      2.223893    0.728423    0.335869
  O      2.157561    0.336286    1.732647
  C      1.281764   -0.778571    1.766350
  C      1.704637   -1.606683    0.551891
  C      1.438275   -0.409447   -0.366227
  C      0.006057    0.015556    0.049714
  O     -0.038569   -0.369614    1.449294
  H     -0.734102    1.962009    0.650270
  H     -0.424145    1.814478   -1.079863
  H      1.789625    2.525999   -0.794278
  H      1.549893    2.696165    0.944909
  H      3.277506    0.812538    0.052218
  H      1.292439   -1.212444    2.764502
  H      2.750379   -1.918485    0.588123
  H      1.053546   -2.463893    0.369189
  H      1.610076   -0.514250   -1.436683
  H     -0.804773   -0.499605   -0.474498

 Total Charge           Charge          ....    0
 Multiplicity           Mult            ....    1
 Number of Electrons    NEL             ....   68
 Basis Dimension        Dim             ....  339

ORBITAL ENERGIES
----------------

  NO   OCC          E(Eh)            E(eV)
   0   2.0000     -20.551483      -559.2343
   1   2.0000     -20.551463      -559.2337
   2   2.0000     -11.326142      -308.2000
   3   2.0000     -11.280583      -306.9603
   4   2.0000     -11.280577      -306.9601
   5   2.0000     -11.238785      -305.8229
   6   2.0000     -11.227711      -305.5215
   7   2.0000     -11.220867      -305.3353
   8   2.0000     -11.220314      -305.3203
   9   2.0000      -1.423518       -38.7359
  10   2.0000      -1.331197       -36.2237
  11   2.0000      -1.114774       -30.3346
  12   2.0000      -1.049249       -28.5515
  13   2.0000      -0.947048       -25.7705
  14   2.0000      -0.941769       -25.6268
  15   2.0000      -0.822456       -22.3802
  16   2.0000      -0.781720       -21.2717
  17   2.0000      -0.742709       -20.2101
  18   2.0000      -0.729839       -19.8599
  19   2.0000      -0.678396       -18.4601
  20   2.0000      -0.663091       -18.0436
  21   2.0000      -0.613665       -16.6987
  22   2.0000      -0.592138       -16.1129
  23   2.0000      -0.587863       -15.9966
  24   2.0000      -0.550108       -14.9692
  25   2.0000      -0.520417       -14.1613
  26   2.0000      -0.517948       -14.0941
  27   2.0000      -0.506171       -13.7736
  28   2.0000      -0.493693       -13.4341
  29   2.0000      -0.488741       -13.2993
  30   2.0000      -0.471756       -12.8371
  31   2.0000      -0.449495       -12.2314
  32   2.0000      -0.418676       -11.3928
  33   2.0000      -0.414119       -11.2687
  34   0.0000       0.132254         3.5988
  35   0.0000       0.157890         4.2964
  36   0.0000       0.167905         4.5689
  37   0.0000       0.185503         5.0478
  38   0.0000       0.192848         5.2477

MULLIKEN ATOMIC CHARGES
-----------------------
   0 C :   -0.229369
   1 C :   -0.229363
   2 C :    0.039229
   3 O :   -0.320457
   4 C :    0.162953
   5 C :   -0.260755
   6 C :   -0.085856
   7 C :    0.039231
   8 O :   -0.320455
   9 H :    0.121417
  10 H :    0.113150
  11 H :    0.113149
  12 H :    0.121417
  13 H :    0.109236
  14 H :    0.126773
  15 H :    0.125656
  16 H :    0.125657
  17 H :    0.139148
  18 H :    0.109237
Sum of atomic charges:    0.0000000

LOEWDIN ATOMIC CHARGES
----------------------
   0 C :   -0.232786
   1 C :   -0.232786
   2 C :   -0.249138
   3 O :    0.182726
   4 C :   -0.388735
   5 C :   -0.214742
   6 C :   -0.200691
   7 C :   -0.249133
   8 O :    0.182728
   9 H :    0.141797
  10 H :    0.137496
  11 H :    0.137497
  12 H :    0.141796
  13 H :    0.136447
  14 H :    0.136660
  15 H :    0.142030
  16 H :    0.142029
  17 H :    0.150357
  18 H :    0.136447

  Mayer bond orders larger than 0.1
B(  0-C ,  1-C ) :   0.9749 B(  0-C ,  7-C ) :   0.9400 B(  0-C ,  9-H ) :   0.9129
B(  0-C , 10-H ) :   0.9185 B(  1-C ,  2-C ) :   0.9400 B(  1-C , 11-H ) :   0.9185
B(  1-C , 12-H ) :   0.9129 B(  2-C ,  3-O ) :   0.9048 B(  2-C ,  6-C ) :   0.9224
B(  2-C , 13-H ) :   0.9253 B(  3-O ,  4-C ) :   0.9860 B(  4-C ,  5-C ) :   0.9666
B(  4-C ,  8-O ) :   0.9860 B(  4-C , 14-H ) :   0.9265 B(  5-C ,  6-C ) :   0.9161
B(  5-C , 15-H ) :   0.9217 B(  5-C , 16-H ) :   0.9217 B(  6-C ,  7-C ) :   0.9224
B(  6-C , 17-H ) :   0.9101 B(  7-C ,  8-O ) :   0.9048 B(  7-C , 18-H ) :   0.9253

MP2 TOTAL ENERGY:     -422.361281434 Eh
FINAL SINGLE POINT ENERGY      -422.361281434165

DIPOLE MOMENT
-------------
                                X             Y             Z
Electronic contribution:      0.07469      -1.66544       3.56989
Nuclear contribution   :      0.11260       1.45209      -4.49005
                        -----------------------------------------
Total Dipole Moment    :      0.18729      -0.21334      -0.92016
                        -----------------------------------------
Magnitude (a.u.)       :      0.96296
Magnitude (Debye)      :      2.44765

                             ****ORCA TERMINATED NORMALLY****
TOTAL RUN TIME: 0 days 0 hours 20 minutes 4 seconds 524 msec
