                         Program Version 3.0.3 - RELEASE   -
|  1> ! RI-MP2 RIJK def2-TZVP def2-TZVP/C def2-TZVP/JK TIGHTSCF
|  2> % maxcore 2000
|  3> % mp2 density relaxed end
|  4> *xyz 0 1
|  5>  C        0.9451733226    -0.2995653957     1.3201823378
|  6>  C        0.4307046286     0.3532972947     0.4525163508
|  7>  C       -0.1718981585     1.1604428328    -0.6111453138
|  8>  N        0.6773753512     2.1975216990    -1.2086123774
|  9>  C        1.0888006796     3.2791431468    -0.3258326959
| 10>  C        2.2473587374     2.9908310312     0.5584473538
| 11>  N        3.1651093682     2.7559828420     1.2186974761
| 12>  C        1.3900835298     4.4848643023    -1.1252816186
| 13>  N        1.6153791505     5.4253318280    -1.7548939564
| 14>  H        1.4078225335    -0.8668853630     2.0904039982
| 15>  H       -0.4945752064     0.5103539338    -1.4316967681
| 16>  H       -1.0810292478     1.6488016074    -0.2383424492
| 17>  H        1.4820772077     1.7926286939    -1.6742071926
| 18>  H        0.2359875637     3.5241148269     0.3205340153
| 19> *
| 20>
| 21>                          ****END OF INPUT****

CARTESIAN COORDINATES (ANGSTROEM)
---------------------------------
  C      0.945173   -0.299565    1.320182
  C      0.430705    0.353297    0.452516
  C     -0.171898    1.160443   -0.611145
  N      0.677375    2.197522   -1.208612
  C      1.088801    3.279143   -0.325833
  C      2.247359    2.990831    0.558447
  N      3.165109    2.755983    1.218697
  C      1.390084    4.484864   -1.125282
  N      1.615379    5.425332   -1.754894
  H      1.407823   -0.866885    2.090404
  H     -0.494575    0.510354   -1.431697
  H     -1.081029    1.648802   -0.238342
  H      1.482077    1.792629   -1.674207
  H      0.235988    3.524115    0.320534

 Total Charge           Charge          ....    0
 Multiplicity           Mult            ....    1
 Number of Electrons    NEL             ....   62
 Basis Dimension        Dim             ....  309

ORBITAL ENERGIES
----------------

  NO   OCC          E(Eh)            E(eV)
   0   2.0000     -15.613997      -424.8785
   1   2.0000     -15.600548      -424.5125
   2   2.0000     -15.600436      -424.5094
   3   2.0000     -11.386207      -309.8344
   4   2.0000     -11.321459      -308.0726
   5   2.0000     -11.301036      -307.5168
   6   2.0000     -11.300064      -307.4904
   7   2.0000     -11.254699      -306.2559
   8   2.0000     -11.249736      -306.1209
   9   2.0000      -1.295379       -35.2491
  10   2.0000      -1.239917       -33.7399
  11   2.0000      -1.239281       -33.7225
  12   2.0000      -1.095220       -29.8024
  13   2.0000      -1.042367       -28.3643
  14   2.0000      -0.952426       -25.9168
  15   2.0000      -0.798029       -21.7155
  16   2.0000      -0.780767       -21.2458
  17   2.0000      -0.751348       -20.4452
  18   2.0000      -0.697439       -18.9783
  19   2.0000      -0.671056       -18.2604
  20   2.0000      -0.635803       -17.3011
  21   2.0000      -0.601319       -16.3627
  22   2.0000      -0.587168       -15.9777
  23   2.0000      -0.581991       -15.8368
  24   2.0000      -0.511215       -13.9109
  25   2.0000      -0.503881       -13.7113
  26   2.0000      -0.487125       -13.2554
  27   2.0000      -0.485317       -13.2062
  28   2.0000      -0.453506       -12.3405
  29   2.0000      -0.414579       -11.2813
  30   2.0000      -0.412597       -11.2273
  31   0.0000       0.093759         2.5513
  32   0.0000       0.121591         3.3087
  33   0.0000       0.137348         3.7374
  34   0.0000       0.142044         3.8652
  35   0.0000       0.151675         4.1273

MULLIKEN ATOMIC CHARGES
-----------------------
   0 C :   -0.148574
   1 C :   -0.037454
   2 C :   -0.274489
   3 N :   -0.319065
   4 C :    0.200783
   5 C :   -0.173391
   6 N :   -0.044023
   7 C :   -0.119157
   8 N :   -0.037571
   9 H :    0.198928
  10 H :    0.179651
  11 H :    0.172758
  12 H :    0.235789
  13 H :    0.165815
Sum of atomic charges:    0.0000000

LOEWDIN ATOMIC CHARGES
----------------------
   0 C :   -0.072996
   1 C :   -0.126753
   2 C :   -0.286314
   3 N :    0.049994
   4 C :   -0.278943
   5 C :   -0.155641
   6 N :    0.091755
   7 C :   -0.145541
   8 N :    0.093228
   9 H :    0.131871
  10 H :    0.159596
  11 H :    0.155764
  12 H :    0.187286
  13 H :    0.196694

  Mayer bond orders larger than 0.1
B(  0-C ,  1-C ) :   2.6922 B(  0-C ,  9-H ) :   0.9101 B(  1-C ,  2-C ) :   0.8857
B(  2-C ,  3-N ) :   0.9413 B(  2-C , 10-H ) :   0.9472 B(  2-C , 11-H ) :   0.9726
B(  3-N ,  4-C ) :   0.9755 B(  3-N , 12-H ) :   0.8722 B(  4-C ,  5-C ) :   0.8971
B(  4-C ,  7-C ) :   0.9168 B(  4-C , 13-H ) :   0.8881 B(  5-C ,  6-N ) :   2.8256
B(  7-C ,  8-N ) :   2.8391

MP2 TOTAL ENERGY:     -394.988322149 Eh
FINAL SINGLE POINT ENERGY      -394.988322148832

DIPOLE MOMENT
-------------
                                X             Y             Z
Electronic contribution:      3.24641       4.20208       0.12863
Nuclear contribution   :     -4.41280      -5.43113      -0.00991
                        -----------------------------------------
Total Dipole Moment    :     -1.16639      -1.22905       0.11872
                        -----------------------------------------
Magnitude (a.u.)       :      1.69857
Magnitude (Debye)      :      4.31741

                             ****ORCA TERMINATED NORMALLY****
TOTAL RUN TIME: 0 days 0 hours 12 minutes 20 seconds 850 msec
