                         Program Version 3.0.3 - RELEASE   -
|  1> ! RI-MP2 RIJK def2-TZVP def2-TZVP/C def2-TZVP/JK TIGHTSCF
|  2> % maxcore 2000
|  3> % mp2 density relaxed end
|  4> *xyz 0 1
|  5>  C        0.0131085583     1.5920547581    -0.2625090255
|  6>  C        0.0089435489     0.1227813587     0.1784481054
|  7>  C       -1.3717258372    -0.5041852497     0.1056973732
|  8>  O       -2.3275865355     0.1143568775     0.9276557215
|  9>  C       -1.8702173896    -1.1369561327    -1.1529979845
| 10>  C       -1.5689747985    -2.0139981363     0.0689829011
| 11>  C       -0.4363263198    -2.9645244223     0.0163025218
| 12>  O       -0.4037152528    -4.0170015703     0.6055878542
| 13>  H        1.0226342128     2.0093209435    -0.2143132445
| 14>  H       -0.3451245879     1.7009431848    -1.2922128467
| 15>  H       -0.6220766031     2.2026626573     0.3873329864
| 16>  H        0.7046178301    -0.4462522398    -0.4466970980
| 17>  H        0.3717415889     0.0455678575     1.2099556332
| 18>  H       -2.5889525358     0.9418946088     0.5092903412
| 19>  H       -2.9161923943    -1.0205496471    -1.4114130612
| 20>  H       -1.1901208764    -1.2181346685    -1.9957786968
| 21>  H       -2.4210357511    -2.3643986115     0.6399595218
| 22>  H        0.4100085229    -2.6534905780    -0.6396497526
| 23> *
| 24>
| 25>                          ****END OF INPUT****

CARTESIAN COORDINATES (ANGSTROEM)
---------------------------------
  C      0.013109    1.592055   -0.262509
  C      0.008944    0.122781    0.178448
  C     -1.371726   -0.504185    0.105697
  O     -2.327587    0.114357    0.927656
  C     -1.870217   -1.136956   -1.152998
  C     -1.568975   -2.013998    0.068983
  C     -0.436326   -2.964524    0.016303
  O     -0.403715   -4.017002    0.605588
  H      1.022634    2.009321   -0.214313
  H     -0.345125    1.700943   -1.292213
  H     -0.622077    2.202663    0.387333
  H      0.704618   -0.446252   -0.446697
  H      0.371742    0.045568    1.209956
  H     -2.588953    0.941895    0.509290
  H     -2.916192   -1.020550   -1.411413
  H     -1.190121   -1.218135   -1.995779
  H     -2.421036   -2.364399    0.639960
  H      0.410009   -2.653491   -0.639650

 Total Charge           Charge          ....    0
 Multiplicity           Mult            ....    1
 Number of Electrons    NEL             ....   62
 Basis Dimension        Dim             ....  308

ORBITAL ENERGIES
----------------

  NO   OCC          E(Eh)            E(eV)
   0   2.0000     -20.576809      -559.9234
   1   2.0000     -20.550056      -559.1955
   2   2.0000     -11.331169      -308.3368
   3   2.0000     -11.313351      -307.8519
   4   2.0000     -11.251430      -306.1670
   5   2.0000     -11.246645      -306.0368
   6   2.0000     -11.243218      -305.9435
   7   2.0000     -11.232855      -305.6615
   8   2.0000      -1.391763       -37.8718
   9   2.0000      -1.387791       -37.7637
  10   2.0000      -1.159124       -31.5414
  11   2.0000      -1.048063       -28.5193
  12   2.0000      -0.915215       -24.9043
  13   2.0000      -0.893261       -24.3069
  14   2.0000      -0.822133       -22.3714
  15   2.0000      -0.762901       -20.7596
  16   2.0000      -0.706808       -19.2332
  17   2.0000      -0.686461       -18.6796
  18   2.0000      -0.655819       -17.8457
  19   2.0000      -0.633074       -17.2268
  20   2.0000      -0.616867       -16.7858
  21   2.0000      -0.595091       -16.1932
  22   2.0000      -0.562159       -15.2971
  23   2.0000      -0.553133       -15.0515
  24   2.0000      -0.539570       -14.6824
  25   2.0000      -0.525863       -14.3095
  26   2.0000      -0.514696       -14.0056
  27   2.0000      -0.498737       -13.5713
  28   2.0000      -0.441146       -12.0042
  29   2.0000      -0.416040       -11.3210
  30   2.0000      -0.407137       -11.0788
  31   0.0000       0.113983         3.1016
  32   0.0000       0.133393         3.6298
  33   0.0000       0.149468         4.0672
  34   0.0000       0.169678         4.6172
  35   0.0000       0.177316         4.8250

MULLIKEN ATOMIC CHARGES
-----------------------
   0 C :   -0.444203
   1 C :   -0.177885
   2 C :    0.199509
   3 O :   -0.462422
   4 C :   -0.343598
   5 C :   -0.027397
   6 C :    0.056677
   7 O :   -0.267648
   8 H :    0.144668
   9 H :    0.134292
  10 H :    0.128623
  11 H :    0.096095
  12 H :    0.132064
  13 H :    0.326661
  14 H :    0.152535
  15 H :    0.134707
  16 H :    0.146194
  17 H :    0.071128
Sum of atomic charges:   -0.0000000

LOEWDIN ATOMIC CHARGES
----------------------
   0 C :   -0.316072
   1 C :   -0.252589
   2 C :   -0.344363
   3 O :    0.033964
   4 C :   -0.180447
   5 C :   -0.173147
   6 C :   -0.292451
   7 O :    0.128763
   8 H :    0.125696
   9 H :    0.122532
  10 H :    0.120003
  11 H :    0.141573
  12 H :    0.147652
  13 H :    0.181867
  14 H :    0.141142
  15 H :    0.140176
  16 H :    0.164196
  17 H :    0.111505

  Mayer bond orders larger than 0.1
B(  0-C ,  1-C ) :   0.8982 B(  0-C ,  8-H ) :   0.9388 B(  0-C ,  9-H ) :   0.9366
B(  0-C , 10-H ) :   0.9410 B(  1-C ,  2-C ) :   0.9398 B(  1-C , 11-H ) :   0.9188
B(  1-C , 12-H ) :   0.9276 B(  2-C ,  3-O ) :   0.9527 B(  2-C ,  4-C ) :   0.8981
B(  2-C ,  5-C ) :   0.7787 B(  3-O , 13-H ) :   0.8370 B(  4-C ,  5-C ) :   0.8539
B(  4-C , 14-H ) :   0.9173 B(  4-C , 15-H ) :   0.9118 B(  5-C ,  6-C ) :   0.8864
B(  5-C , 16-H ) :   0.9115 B(  6-C ,  7-O ) :   1.9883 B(  6-C , 17-H ) :   0.9530

MP2 TOTAL ENERGY:     -384.301051749 Eh
FINAL SINGLE POINT ENERGY      -384.301051748997

DIPOLE MOMENT
-------------
                                X             Y             Z
Electronic contribution:     -2.28258      -7.81092       2.79095
Nuclear contribution   :      2.26052       9.26166      -3.74591
                        -----------------------------------------
Total Dipole Moment    :     -0.02205       1.45074      -0.95496
                        -----------------------------------------
Magnitude (a.u.)       :      1.73698
Magnitude (Debye)      :      4.41505

                             ****ORCA TERMINATED NORMALLY****
TOTAL RUN TIME: 0 days 0 hours 12 minutes 24 seconds 657 msec
