                         Program Version 3.0.3 - RELEASE   -
|  1> ! RI-MP2 RIJK def2-TZVP def2-TZVP/C def2-TZVP/JK TIGHTSCF
|  2> % maxcore 2000
|  3> % mp2 density relaxed end
|  4> *xyz 0 1
|  5>  N        0.5643266936     0.4433142745    -0.8374197626
|  6>  C        0.0406085234     0.0005342031     0.3335357284
|  7>  O        0.4209794044     0.3744011426     1.4257205951
|  8>  C       -1.0937696667    -1.0272093042     0.2457300769
|  9>  C       -2.2425099939    -0.8492636699    -0.7931229842
| 10>  O       -1.3127000127    -1.3023673397    -1.8696053611
| 11>  C       -0.9944050266    -2.2286118844    -0.7430435119
| 12>  C       -2.5377530089    -2.3651734222    -0.6138887449
| 13>  O       -3.4139646204    -3.1549209572    -0.5284475712
| 14>  H        1.3133992339     1.1145024098    -0.7950941429
| 15>  H        0.2178622268     0.0951662938    -1.7166450427
| 16>  H       -1.3968537635    -1.2647274708     1.2667559147
| 17>  H       -2.8729278338     0.0127971674    -0.9967053076
| 18>  H       -0.1931113756    -2.9487918629    -0.8889938759
| 19> *
| 20>
| 21>                          ****END OF INPUT****

CARTESIAN COORDINATES (ANGSTROEM)
---------------------------------
  N      0.564327    0.443314   -0.837420
  C      0.040609    0.000534    0.333536
  O      0.420979    0.374401    1.425721
  C     -1.093770   -1.027209    0.245730
  C     -2.242510   -0.849264   -0.793123
  O     -1.312700   -1.302367   -1.869605
  C     -0.994405   -2.228612   -0.743044
  C     -2.537753   -2.365173   -0.613889
  O     -3.413965   -3.154921   -0.528448
  H      1.313399    1.114502   -0.795094
  H      0.217862    0.095166   -1.716645
  H     -1.396854   -1.264727    1.266756
  H     -2.872928    0.012797   -0.996705
  H     -0.193111   -2.948792   -0.888994

 Total Charge           Charge          ....    0
 Multiplicity           Mult            ....    1
 Number of Electrons    NEL             ....   66
 Basis Dimension        Dim             ....  309

ORBITAL ENERGIES
----------------

  NO   OCC          E(Eh)            E(eV)
   0   2.0000     -20.609609      -560.8160
   1   2.0000     -20.592805      -560.3587
   2   2.0000     -20.532719      -558.7237
   3   2.0000     -15.589702      -424.2174
   4   2.0000     -11.380155      -309.6698
   5   2.0000     -11.370660      -309.4114
   6   2.0000     -11.349210      -308.8277
   7   2.0000     -11.349177      -308.8268
   8   2.0000     -11.293120      -307.3014
   9   2.0000      -1.460922       -39.7537
  10   2.0000      -1.426501       -38.8171
  11   2.0000      -1.396464       -37.9997
  12   2.0000      -1.221952       -33.2510
  13   2.0000      -1.115612       -30.3574
  14   2.0000      -0.952883       -25.9293
  15   2.0000      -0.944265       -25.6947
  16   2.0000      -0.808249       -21.9936
  17   2.0000      -0.765752       -20.8372
  18   2.0000      -0.748879       -20.3780
  19   2.0000      -0.733004       -19.9460
  20   2.0000      -0.688046       -18.7227
  21   2.0000      -0.659289       -17.9402
  22   2.0000      -0.657340       -17.8871
  23   2.0000      -0.625073       -17.0091
  24   2.0000      -0.611073       -16.6281
  25   2.0000      -0.582672       -15.8553
  26   2.0000      -0.565026       -15.3751
  27   2.0000      -0.527785       -14.3618
  28   2.0000      -0.509488       -13.8639
  29   2.0000      -0.485757       -13.2181
  30   2.0000      -0.437755       -11.9119
  31   2.0000      -0.434557       -11.8249
  32   2.0000      -0.423630       -11.5276
  33   0.0000       0.119533         3.2527
  34   0.0000       0.134272         3.6537
  35   0.0000       0.143399         3.9021
  36   0.0000       0.159638         4.3440
  37   0.0000       0.169404         4.6097

MULLIKEN ATOMIC CHARGES
-----------------------
   0 N :   -0.468256
   1 C :    0.199381
   2 O :   -0.329632
   3 C :   -0.075698
   4 C :   -0.015780
   5 O :   -0.323366
   6 C :   -0.016680
   7 C :    0.203147
   8 O :   -0.211398
   9 H :    0.254897
  10 H :    0.283735
  11 H :    0.154937
  12 H :    0.172396
  13 H :    0.172318
Sum of atomic charges:    0.0000000

LOEWDIN ATOMIC CHARGES
----------------------
   0 N :   -0.003717
   1 C :   -0.467466
   2 O :    0.091649
   3 C :   -0.146114
   4 C :   -0.162818
   5 O :    0.140408
   6 C :   -0.162791
   7 C :   -0.273394
   8 O :    0.198466
   9 H :    0.174821
  10 H :    0.172504
  11 H :    0.168657
  12 H :    0.134900
  13 H :    0.134894

  Mayer bond orders larger than 0.1
B(  0-N ,  1-C ) :   1.2176 B(  0-N ,  9-H ) :   0.8584 B(  0-N , 10-H ) :   0.8374
B(  1-C ,  2-O ) :   1.9956 B(  1-C ,  3-C ) :   0.8790 B(  3-C ,  4-C ) :   0.8591
B(  3-C ,  6-C ) :   0.8592 B(  3-C , 11-H ) :   0.9298 B(  4-C ,  5-O ) :   0.8311
B(  4-C ,  7-C ) :   0.8598 B(  4-C , 12-H ) :   0.8780 B(  5-O ,  6-C ) :   0.8314
B(  6-C ,  7-C ) :   0.8598 B(  6-C , 13-H ) :   0.8781 B(  7-C ,  8-O ) :   2.0759

MP2 TOTAL ENERGY:     -473.034813458 Eh
FINAL SINGLE POINT ENERGY      -473.034813457636

DIPOLE MOMENT
-------------
                                X             Y             Z
Electronic contribution:     -2.31221      -2.08913       0.30197
Nuclear contribution   :      2.63280       2.35174      -1.11693
                        -----------------------------------------
Total Dipole Moment    :      0.32059       0.26261      -0.81496
                        -----------------------------------------
Magnitude (a.u.)       :      0.91428
Magnitude (Debye)      :      2.32391

                             ****ORCA TERMINATED NORMALLY****
TOTAL RUN TIME: 0 days 0 hours 15 minutes 1 seconds 957 msec
