                         Program Version 3.0.3 - RELEASE   -
|  1> ! RI-MP2 RIJK def2-TZVP def2-TZVP/C def2-TZVP/JK TIGHTSCF
|  2> % maxcore 2000
|  3> % mp2 density relaxed end
|  4> *xyz 0 1
|  5>  O        0.4453089472     0.3244761057     0.9296935633
|  6>  C       -0.0822583523     0.3165340824    -0.4043025600
|  7>  C       -1.4573891570    -0.3267370451    -0.3980501753
|  8>  N       -1.9381353899    -1.0552922094    -1.6553297134
|  9>  C       -1.0807782736    -2.2989745347    -1.3016488911
| 10>  C       -2.2866242682    -3.2298023173    -1.4585262576
| 11>  C       -2.8246894684    -1.9760131402    -0.7654179173
| 12>  C       -1.5562997969    -1.7579969863     0.1037573839
| 13>  O       -1.3162304958    -2.2451741286     1.3693533379
| 14>  H       -0.0633159168     0.9614093311     1.4426776895
| 15>  H       -0.1010553525     1.3278594753    -0.8317658506
| 16>  H        0.6226024174    -0.2765282625    -0.9933911740
| 17>  H       -2.2215286180     0.3652246253    -0.0166070326
| 18>  H       -0.0695910379    -2.4089993187    -1.6940585956
| 19>  H       -2.6323551144    -3.3996261517    -2.4811897112
| 20>  H       -2.2780347625    -4.1494921962    -0.8707316385
| 21>  H       -3.8480157246    -1.6780437987    -0.5303372763
| 22>  H       -0.5319618057    -1.7788371405     1.6892472589
| 23> *
| 24>
| 25>                          ****END OF INPUT****

CARTESIAN COORDINATES (ANGSTROEM)
---------------------------------
  O      0.445309    0.324476    0.929694
  C     -0.082258    0.316534   -0.404303
  C     -1.457389   -0.326737   -0.398050
  N     -1.938135   -1.055292   -1.655330
  C     -1.080778   -2.298975   -1.301649
  C     -2.286624   -3.229802   -1.458526
  C     -2.824689   -1.976013   -0.765418
  C     -1.556300   -1.757997    0.103757
  O     -1.316230   -2.245174    1.369353
  H     -0.063316    0.961409    1.442678
  H     -0.101055    1.327859   -0.831766
  H      0.622602   -0.276528   -0.993391
  H     -2.221529    0.365225   -0.016607
  H     -0.069591   -2.408999   -1.694059
  H     -2.632355   -3.399626   -2.481190
  H     -2.278035   -4.149492   -0.870732
  H     -3.848016   -1.678044   -0.530337
  H     -0.531962   -1.778837    1.689247

 Total Charge           Charge          ....    0
 Multiplicity           Mult            ....    1
 Number of Electrons    NEL             ....   68
 Basis Dimension        Dim             ....  333

ORBITAL ENERGIES
----------------

  NO   OCC          E(Eh)            E(eV)
   0   2.0000     -20.575558      -559.8894
   1   2.0000     -20.567891      -559.6808
   2   2.0000     -15.572309      -423.7441
   3   2.0000     -11.302897      -307.5675
   4   2.0000     -11.287009      -307.1351
   5   2.0000     -11.274196      -306.7865
   6   2.0000     -11.271854      -306.7227
   7   2.0000     -11.262001      -306.4546
   8   2.0000     -11.231496      -305.6246
   9   2.0000      -1.389688       -37.8153
  10   2.0000      -1.373269       -37.3685
  11   2.0000      -1.311971       -35.7005
  12   2.0000      -1.053940       -28.6792
  13   2.0000      -0.958475       -26.0814
  14   2.0000      -0.909128       -24.7386
  15   2.0000      -0.881519       -23.9873
  16   2.0000      -0.821093       -22.3431
  17   2.0000      -0.726958       -19.7815
  18   2.0000      -0.717367       -19.5205
  19   2.0000      -0.697156       -18.9706
  20   2.0000      -0.658633       -17.9223
  21   2.0000      -0.645363       -17.5612
  22   2.0000      -0.627602       -17.0779
  23   2.0000      -0.596696       -16.2369
  24   2.0000      -0.593239       -16.1428
  25   2.0000      -0.556586       -15.1455
  26   2.0000      -0.524182       -14.2637
  27   2.0000      -0.505623       -13.7587
  28   2.0000      -0.470127       -12.7928
  29   2.0000      -0.465790       -12.6748
  30   2.0000      -0.450548       -12.2600
  31   2.0000      -0.424918       -11.5626
  32   2.0000      -0.409815       -11.1516
  33   2.0000      -0.392463       -10.6795
  34   0.0000       0.122463         3.3324
  35   0.0000       0.159722         4.3463
  36   0.0000       0.160772         4.3748
  37   0.0000       0.167116         4.5474
  38   0.0000       0.186917         5.0863

MULLIKEN ATOMIC CHARGES
-----------------------
   0 O :   -0.494340
   1 C :   -0.039679
   2 C :   -0.084875
   3 N :   -0.215403
   4 C :   -0.144199
   5 C :   -0.200628
   6 C :   -0.100473
   7 C :    0.207067
   8 O :   -0.453577
   9 H :    0.323094
  10 H :    0.123483
  11 H :    0.121176
  12 H :    0.105260
  13 H :    0.137028
  14 H :    0.120428
  15 H :    0.128261
  16 H :    0.129117
  17 H :    0.338260
Sum of atomic charges:   -0.0000000

LOEWDIN ATOMIC CHARGES
----------------------
   0 O :   -0.055622
   1 C :   -0.310564
   2 C :   -0.245874
   3 N :    0.153150
   4 C :   -0.165953
   5 C :   -0.207372
   6 C :   -0.153174
   7 C :   -0.319118
   8 O :    0.026570
   9 H :    0.175702
  10 H :    0.121373
  11 H :    0.134637
  12 H :    0.139115
  13 H :    0.123337
  14 H :    0.133291
  15 H :    0.136841
  16 H :    0.127311
  17 H :    0.186351

  Mayer bond orders larger than 0.1
B(  0-O ,  1-C ) :   0.8832 B(  0-O ,  9-H ) :   0.8429 B(  1-C ,  2-C ) :   0.9191
B(  1-C , 10-H ) :   0.9425 B(  1-C , 11-H ) :   0.9213 B(  2-C ,  3-N ) :   0.9183
B(  2-C ,  7-C ) :   0.9216 B(  2-C , 12-H ) :   0.9150 B(  3-N ,  4-C ) :   0.9166
B(  3-N ,  6-C ) :   0.9212 B(  4-C ,  5-C ) :   0.9367 B(  4-C ,  7-C ) :   0.8704
B(  4-C , 13-H ) :   0.8823 B(  5-C ,  6-C ) :   0.9503 B(  5-C , 14-H ) :   0.9108
B(  5-C , 15-H ) :   0.9187 B(  6-C ,  7-C ) :   0.9346 B(  6-C , 16-H ) :   0.8896
B(  7-C ,  8-O ) :   1.0885 B(  8-O , 17-H ) :   0.8148

MP2 TOTAL ENERGY:     -438.271495147 Eh
FINAL SINGLE POINT ENERGY      -438.271495147034

DIPOLE MOMENT
-------------
                                X             Y             Z
Electronic contribution:     -0.41409      -0.33006       1.45960
Nuclear contribution   :      0.46754       0.81530      -1.23142
                        -----------------------------------------
Total Dipole Moment    :      0.05345       0.48524       0.22818
                        -----------------------------------------
Magnitude (a.u.)       :      0.53887
Magnitude (Debye)      :      1.36969

                             ****ORCA TERMINATED NORMALLY****
TOTAL RUN TIME: 0 days 0 hours 17 minutes 27 seconds 153 msec
