                         Program Version 3.0.3 - RELEASE   -
|  1> ! RI-MP2 RIJK def2-TZVP def2-TZVP/C def2-TZVP/JK TIGHTSCF
|  2> % maxcore 2000
|  3> % mp2 density relaxed end
|  4> *xyz 0 1
|  5>  C       -0.0721917660     1.2302877076    -0.5579300213
|  6>  O       -0.1715777964    -0.1832434745    -0.5161812477
|  7>  C       -1.2500279514    -0.6504787442     0.2551171791
|  8>  O       -2.4965101891    -0.3041070375    -0.2889631617
|  9>  C       -2.8909345699    -1.2863121181    -1.2578702534
| 10>  C       -1.9149048397    -2.4736688323    -1.1134957983
| 11>  C       -1.2135305130    -2.1904857354     0.2315816278
| 12>  C        0.1799765220    -2.7736037518     0.3299227328
| 13>  O        0.5652012258    -3.4472003766     1.2510228303
| 14>  H        0.7988930360     1.4709026070    -1.1705211682
| 15>  H       -0.9677037936     1.6811776140    -1.0001475995
| 16>  H        0.0718832230     1.6478749849     0.4495586434
| 17>  H       -1.2126310534    -0.2145355095     1.2626224816
| 18>  H       -3.9254667087    -1.5687278419    -1.0362406675
| 19>  H       -2.8622918507    -0.8525569492    -2.2633435130
| 20>  H       -2.4254145583    -3.4384267367    -1.1215241116
| 21>  H       -1.1804653707    -2.4723474400    -1.9242978514
| 22>  H       -1.8004450244    -2.5633731517     1.0745572454
| 23>  H        0.8388146886    -2.5344466940    -0.5305805069
| 24> *
| 25>
| 26>                          ****END OF INPUT****

CARTESIAN COORDINATES (ANGSTROEM)
---------------------------------
  C     -0.072192    1.230288   -0.557930
  O     -0.171578   -0.183243   -0.516181
  C     -1.250028   -0.650479    0.255117
  O     -2.496510   -0.304107   -0.288963
  C     -2.890935   -1.286312   -1.257870
  C     -1.914905   -2.473669   -1.113496
  C     -1.213531   -2.190486    0.231582
  C      0.179977   -2.773604    0.329923
  O      0.565201   -3.447200    1.251023
  H      0.798893    1.470903   -1.170521
  H     -0.967704    1.681178   -1.000148
  H      0.071883    1.647875    0.449559
  H     -1.212631   -0.214536    1.262622
  H     -3.925467   -1.568728   -1.036241
  H     -2.862292   -0.852557   -2.263344
  H     -2.425415   -3.438427   -1.121524
  H     -1.180465   -2.472347   -1.924298
  H     -1.800445   -2.563373    1.074557
  H      0.838815   -2.534447   -0.530581

 Total Charge           Charge          ....    0
 Multiplicity           Mult            ....    1
 Number of Electrons    NEL             ....   70
 Basis Dimension        Dim             ....  339

ORBITAL ENERGIES
----------------

  NO   OCC          E(Eh)            E(eV)
   0   2.0000     -20.572694      -559.8115
   1   2.0000     -20.569815      -559.7331
   2   2.0000     -20.556030      -559.3580
   3   2.0000     -11.346675      -308.7587
   4   2.0000     -11.329328      -308.2867
   5   2.0000     -11.288942      -307.1877
   6   2.0000     -11.278698      -306.9090
   7   2.0000     -11.249555      -306.1160
   8   2.0000     -11.246423      -306.0307
   9   2.0000      -1.432757       -38.9873
  10   2.0000      -1.394281       -37.9403
  11   2.0000      -1.360158       -37.0118
  12   2.0000      -1.092937       -29.7403
  13   2.0000      -1.015034       -27.6205
  14   2.0000      -0.936345       -25.4792
  15   2.0000      -0.872399       -23.7392
  16   2.0000      -0.825282       -22.4571
  17   2.0000      -0.784954       -21.3597
  18   2.0000      -0.726894       -19.7798
  19   2.0000      -0.700384       -19.0584
  20   2.0000      -0.675341       -18.3770
  21   2.0000      -0.649982       -17.6869
  22   2.0000      -0.638408       -17.3720
  23   2.0000      -0.625220       -17.0131
  24   2.0000      -0.598211       -16.2782
  25   2.0000      -0.586041       -15.9470
  26   2.0000      -0.553367       -15.0579
  27   2.0000      -0.546181       -14.8623
  28   2.0000      -0.521882       -14.2011
  29   2.0000      -0.514489       -14.0000
  30   2.0000      -0.499001       -13.5785
  31   2.0000      -0.467528       -12.7221
  32   2.0000      -0.454445       -12.3661
  33   2.0000      -0.445008       -12.1093
  34   2.0000      -0.418075       -11.3764
  35   0.0000       0.131034         3.5656
  36   0.0000       0.136171         3.7054
  37   0.0000       0.154549         4.2055
  38   0.0000       0.160497         4.3673
  39   0.0000       0.174258         4.7418

MULLIKEN ATOMIC CHARGES
-----------------------
   0 C :   -0.236737
   1 O :   -0.316646
   2 C :    0.178515
   3 O :   -0.315520
   4 C :   -0.023674
   5 C :   -0.312812
   6 C :    0.031417
   7 C :    0.064631
   8 O :   -0.262053
   9 H :    0.141510
  10 H :    0.139024
  11 H :    0.115877
  12 H :    0.100172
  13 H :    0.114047
  14 H :    0.106134
  15 H :    0.142556
  16 H :    0.127162
  17 H :    0.112952
  18 H :    0.093446
Sum of atomic charges:   -0.0000000

LOEWDIN ATOMIC CHARGES
----------------------
   0 C :   -0.345774
   1 O :    0.159116
   2 C :   -0.391780
   3 O :    0.176346
   4 C :   -0.281067
   5 C :   -0.230100
   6 C :   -0.224481
   7 C :   -0.271876
   8 O :    0.134051
   9 H :    0.114031
  10 H :    0.108255
  11 H :    0.104918
  12 H :    0.134652
  13 H :    0.124685
  14 H :    0.123179
  15 H :    0.140613
  16 H :    0.143794
  17 H :    0.164007
  18 H :    0.117434

  Mayer bond orders larger than 0.1
B(  0-C ,  1-O ) :   0.8961 B(  0-C ,  9-H ) :   0.9371 B(  0-C , 10-H ) :   0.9370
B(  0-C , 11-H ) :   0.9365 B(  1-O ,  2-C ) :   0.9930 B(  2-C ,  3-O ) :   0.9862
B(  2-C ,  6-C ) :   0.9174 B(  2-C , 12-H ) :   0.9202 B(  3-O ,  4-C ) :   0.9078
B(  4-C ,  5-C ) :   0.9520 B(  4-C , 13-H ) :   0.9275 B(  4-C , 14-H ) :   0.9283
B(  5-C ,  6-C ) :   0.9079 B(  5-C , 15-H ) :   0.9310 B(  5-C , 16-H ) :   0.9124
B(  6-C ,  7-C ) :   0.8530 B(  6-C , 17-H ) :   0.9045 B(  7-C ,  8-O ) :   1.9838
B(  7-C , 18-H ) :   0.9301

MP2 TOTAL ENERGY:     -459.436643568 Eh
FINAL SINGLE POINT ENERGY      -459.436643568133

DIPOLE MOMENT
-------------
                                X             Y             Z
Electronic contribution:      1.78907      -3.42871       3.32826
Nuclear contribution   :     -2.32128       3.93426      -4.08805
                        -----------------------------------------
Total Dipole Moment    :     -0.53221       0.50554      -0.75980
                        -----------------------------------------
Magnitude (a.u.)       :      1.05646
Magnitude (Debye)      :      2.68532

                             ****ORCA TERMINATED NORMALLY****
TOTAL RUN TIME: 0 days 0 hours 17 minutes 48 seconds 655 msec
