                         Program Version 3.0.3 - RELEASE   -
|  1> ! RI-MP2 RIJK def2-TZVP def2-TZVP/C def2-TZVP/JK TIGHTSCF
|  2> % maxcore 2000
|  3> % mp2 density relaxed end
|  4> *xyz 0 1
|  5>  C       -0.8906321657     0.2466273652    -0.1631215366
|  6>  C        0.5724245496    -0.1063519613    -0.4312962269
|  7>  O        1.3081759001     1.0467747945    -0.8317487221
|  8>  C        1.3305632139    -0.6553689357     0.7903053284
|  9>  C        0.8012816954    -1.9668613819     1.3159206563
| 10>  C       -0.3147033753    -2.0094359653     2.3278518080
| 11>  N        1.3695803597    -3.0173838292     0.8569412844
| 12>  O        0.8023648220    -4.1875216986     1.3907248783
| 13>  H       -0.9677413753     0.9884880167     0.6386164482
| 14>  H       -1.3510296504     0.6716205980    -1.0629669944
| 15>  H       -1.4750536565    -0.6353871207     0.1143889655
| 16>  H        0.6156287458    -0.8766267124    -1.2180101373
| 17>  H        0.8607167718     1.4354649853    -1.5900116833
| 18>  H        2.3707526544    -0.7886533183     0.4843074938
| 19>  H        1.3085718489     0.1030589817     1.5817868035
| 20>  H       -1.1642821280    -2.5858752687     1.9472651592
| 21>  H        0.0226754215    -2.5269249127     3.2323518574
| 22>  H       -0.6530913982    -1.0081015368     2.5972483872
| 23>  H        1.3371346765    -4.8746914598     0.9799133105
| 24> *
| 25>
| 26>                          ****END OF INPUT****

CARTESIAN COORDINATES (ANGSTROEM)
---------------------------------
  C     -0.890632    0.246627   -0.163122
  C      0.572425   -0.106352   -0.431296
  O      1.308176    1.046775   -0.831749
  C      1.330563   -0.655369    0.790305
  C      0.801282   -1.966861    1.315921
  C     -0.314703   -2.009436    2.327852
  N      1.369580   -3.017384    0.856941
  O      0.802365   -4.187522    1.390725
  H     -0.967741    0.988488    0.638616
  H     -1.351030    0.671621   -1.062967
  H     -1.475054   -0.635387    0.114389
  H      0.615629   -0.876627   -1.218010
  H      0.860717    1.435465   -1.590012
  H      2.370753   -0.788653    0.484307
  H      1.308572    0.103059    1.581787
  H     -1.164282   -2.585875    1.947265
  H      0.022675   -2.526925    3.232352
  H     -0.653091   -1.008102    2.597248
  H      1.337135   -4.874691    0.979913

 Total Charge           Charge          ....    0
 Multiplicity           Mult            ....    1
 Number of Electrons    NEL             ....   64
 Basis Dimension        Dim             ....  314

ORBITAL ENERGIES
----------------

  NO   OCC          E(Eh)            E(eV)
   0   2.0000     -20.586630      -560.1907
   1   2.0000     -20.556452      -559.3695
   2   2.0000     -15.608417      -424.7266
   3   2.0000     -11.287380      -307.1452
   4   2.0000     -11.277023      -306.8634
   5   2.0000     -11.229454      -305.5690
   6   2.0000     -11.228738      -305.5495
   7   2.0000     -11.224418      -305.4319
   8   2.0000      -1.413924       -38.4748
   9   2.0000      -1.363375       -37.0993
  10   2.0000      -1.167731       -31.7756
  11   2.0000      -1.044642       -28.4262
  12   2.0000      -0.981078       -26.6965
  13   2.0000      -0.953107       -25.9354
  14   2.0000      -0.821708       -22.3598
  15   2.0000      -0.736437       -20.0395
  16   2.0000      -0.695202       -18.9174
  17   2.0000      -0.683303       -18.5936
  18   2.0000      -0.655523       -17.8377
  19   2.0000      -0.629893       -17.1403
  20   2.0000      -0.616968       -16.7886
  21   2.0000      -0.592409       -16.1203
  22   2.0000      -0.568893       -15.4804
  23   2.0000      -0.551875       -15.0173
  24   2.0000      -0.548556       -14.9270
  25   2.0000      -0.539864       -14.6905
  26   2.0000      -0.519183       -14.1277
  27   2.0000      -0.510065       -13.8796
  28   2.0000      -0.484099       -13.1730
  29   2.0000      -0.442971       -12.0538
  30   2.0000      -0.429834       -11.6964
  31   2.0000      -0.375930       -10.2296
  32   0.0000       0.127822         3.4782
  33   0.0000       0.147002         4.0001
  34   0.0000       0.153606         4.1798
  35   0.0000       0.162168         4.4128
  36   0.0000       0.181681         4.9438

MULLIKEN ATOMIC CHARGES
-----------------------
   0 C :   -0.455411
   1 C :    0.107898
   2 O :   -0.462359
   3 C :   -0.186402
   4 C :    0.045221
   5 C :   -0.424392
   6 N :   -0.105128
   7 O :   -0.372009
   8 H :    0.136321
   9 H :    0.125572
  10 H :    0.136239
  11 H :    0.089074
  12 H :    0.310848
  13 H :    0.136061
  14 H :    0.132318
  15 H :    0.152286
  16 H :    0.158514
  17 H :    0.140664
  18 H :    0.334685
Sum of atomic charges:    0.0000000

LOEWDIN ATOMIC CHARGES
----------------------
   0 C :   -0.305314
   1 C :   -0.368793
   2 O :   -0.023830
   3 C :   -0.214943
   4 C :   -0.305584
   5 C :   -0.290750
   6 N :    0.022271
   7 O :   -0.074498
   8 H :    0.125514
   9 H :    0.120923
  10 H :    0.128384
  11 H :    0.135496
  12 H :    0.172393
  13 H :    0.156029
  14 H :    0.148164
  15 H :    0.137212
  16 H :    0.140068
  17 H :    0.128346
  18 H :    0.168913

  Mayer bond orders larger than 0.1
B(  0-C ,  1-C ) :   0.9162 B(  0-C ,  8-H ) :   0.9365 B(  0-C ,  9-H ) :   0.9342
B(  0-C , 10-H ) :   0.9267 B(  1-C ,  2-O ) :   0.9770 B(  1-C ,  3-C ) :   0.9003
B(  1-C , 11-H ) :   0.9327 B(  2-O , 12-H ) :   0.8469 B(  3-C ,  4-C ) :   0.8979
B(  3-C , 13-H ) :   0.9209 B(  3-C , 14-H ) :   0.9329 B(  4-C ,  5-C ) :   0.9342
B(  4-C ,  6-N ) :   1.8375 B(  5-C , 15-H ) :   0.9222 B(  5-C , 16-H ) :   0.9162
B(  5-C , 17-H ) :   0.9348 B(  6-N ,  7-O ) :   0.8143 B(  7-O , 18-H ) :   0.8465

MP2 TOTAL ENERGY:     -401.515814824 Eh
FINAL SINGLE POINT ENERGY      -401.515814824440

DIPOLE MOMENT
-------------
                                X             Y             Z
Electronic contribution:      4.82095      -4.31845      -0.82212
Nuclear contribution   :     -5.46525       4.30921       0.62703
                        -----------------------------------------
Total Dipole Moment    :     -0.64430      -0.00924      -0.19510
                        -----------------------------------------
Magnitude (a.u.)       :      0.67325
Magnitude (Debye)      :      1.71128

                             ****ORCA TERMINATED NORMALLY****
TOTAL RUN TIME: 0 days 0 hours 11 minutes 53 seconds 119 msec
