                         Program Version 3.0.3 - RELEASE   -
|  1> ! RI-MP2 RIJK def2-TZVP def2-TZVP/C def2-TZVP/JK TIGHTSCF
|  2> % maxcore 2000
|  3> % mp2 density relaxed end
|  4> *xyz 0 1
|  5>  O        0.0155154810    -0.0020381036     0.0122205307
|  6>  C       -0.0027536647     1.1964482513     0.0034181853
|  7>  C       -1.2356293524     2.1311514071     0.0154669987
|  8>  N       -0.6698324327     3.4977017533     0.0705053334
|  9>  C        0.5368996705     3.3448629516    -0.7838921992
| 10>  C        1.1949300698     2.1661152863    -0.0064242569
| 11>  C        1.1904217922     2.7864560466     1.4042329103
| 12>  O        1.9638737459     2.5943165009     2.2995740519
| 13>  C       -0.0553511901     3.7039727809     1.4010984500
| 14>  H       -1.8158985192     2.0011268980    -0.9044107289
| 15>  H       -1.8950323018     1.9185300688     0.8603871264
| 16>  H        0.2629851773     3.0946419300    -1.8113613117
| 17>  H        1.1361590325     4.2582168019    -0.7862551906
| 18>  H        2.1396882161     1.7246349648    -0.3100388313
| 19>  H        0.2471432644     4.7502675804     1.5175365402
| 20>  H       -0.7384439687     3.4598172819     2.2182169218
| 21> *
| 22>
| 23>                          ****END OF INPUT****

CARTESIAN COORDINATES (ANGSTROEM)
---------------------------------
  O      0.015515   -0.002038    0.012221
  C     -0.002754    1.196448    0.003418
  C     -1.235629    2.131151    0.015467
  N     -0.669832    3.497702    0.070505
  C      0.536900    3.344863   -0.783892
  C      1.194930    2.166115   -0.006424
  C      1.190422    2.786456    1.404233
  O      1.963874    2.594317    2.299574
  C     -0.055351    3.703973    1.401098
  H     -1.815899    2.001127   -0.904411
  H     -1.895032    1.918530    0.860387
  H      0.262985    3.094642   -1.811361
  H      1.136159    4.258217   -0.786255
  H      2.139688    1.724635   -0.310039
  H      0.247143    4.750268    1.517537
  H     -0.738444    3.459817    2.218217

 Total Charge           Charge          ....    0
 Multiplicity           Mult            ....    1
 Number of Electrons    NEL             ....   66
 Basis Dimension        Dim             ....  321

ORBITAL ENERGIES
----------------

  NO   OCC          E(Eh)            E(eV)
   0   2.0000     -20.570484      -559.7513
   1   2.0000     -20.570483      -559.7513
   2   2.0000     -15.591914      -424.2775
   3   2.0000     -11.354039      -308.9591
   4   2.0000     -11.354036      -308.9590
   5   2.0000     -11.293280      -307.3058
   6   2.0000     -11.285474      -307.0934
   7   2.0000     -11.285459      -307.0930
   8   2.0000     -11.267932      -306.6160
   9   2.0000      -1.418351       -38.5953
  10   2.0000      -1.411713       -38.4147
  11   2.0000      -1.297954       -35.3191
  12   2.0000      -1.063422       -28.9372
  13   2.0000      -1.028088       -27.9757
  14   2.0000      -0.980033       -26.6680
  15   2.0000      -0.843424       -22.9507
  16   2.0000      -0.793569       -21.5941
  17   2.0000      -0.758903       -20.6508
  18   2.0000      -0.707647       -19.2560
  19   2.0000      -0.698221       -18.9996
  20   2.0000      -0.669387       -18.2149
  21   2.0000      -0.642023       -17.4703
  22   2.0000      -0.620123       -16.8744
  23   2.0000      -0.617061       -16.7911
  24   2.0000      -0.576942       -15.6994
  25   2.0000      -0.574420       -15.6308
  26   2.0000      -0.556005       -15.1297
  27   2.0000      -0.545311       -14.8387
  28   2.0000      -0.515295       -14.0219
  29   2.0000      -0.508870       -13.8471
  30   2.0000      -0.486924       -13.2499
  31   2.0000      -0.410582       -11.1725
  32   2.0000      -0.386210       -10.5093
  33   0.0000       0.092312         2.5119
  34   0.0000       0.122094         3.3223
  35   0.0000       0.151846         4.1319
  36   0.0000       0.161281         4.3887
  37   0.0000       0.172008         4.6806

MULLIKEN ATOMIC CHARGES
-----------------------
   0 O :   -0.240605
   1 C :    0.058191
   2 C :   -0.190541
   3 N :   -0.127467
   4 C :   -0.261480
   5 C :    0.083849
   6 C :    0.058194
   7 O :   -0.240604
   8 C :   -0.190544
   9 H :    0.153547
  10 H :    0.151223
  11 H :    0.146398
  12 H :    0.146397
  13 H :    0.148673
  14 H :    0.153547
  15 H :    0.151222
Sum of atomic charges:   -0.0000000

LOEWDIN ATOMIC CHARGES
----------------------
   0 O :    0.174706
   1 C :   -0.299300
   2 C :   -0.237240
   3 N :    0.090636
   4 C :   -0.220226
   5 C :   -0.176209
   6 C :   -0.299298
   7 O :    0.174706
   8 C :   -0.237242
   9 H :    0.149125
  10 H :    0.146573
  11 H :    0.140372
  12 H :    0.140372
  13 H :    0.157326
  14 H :    0.149126
  15 H :    0.146573

  Mayer bond orders larger than 0.1
B(  0-O ,  1-C ) :   2.0440 B(  1-C ,  2-C ) :   0.8869 B(  1-C ,  5-C ) :   0.8237
B(  2-C ,  3-N ) :   0.9211 B(  2-C ,  5-C ) :  -0.1098 B(  2-C ,  9-H ) :   0.9054
B(  2-C , 10-H ) :   0.9169 B(  3-N ,  4-C ) :   0.8947 B(  3-N ,  8-C ) :   0.9211
B(  4-C ,  5-C ) :   0.8754 B(  4-C , 11-H ) :   0.9216 B(  4-C , 12-H ) :   0.9216
B(  5-C ,  6-C ) :   0.8237 B(  5-C ,  8-C ) :  -0.1098 B(  5-C , 13-H ) :   0.8990
B(  6-C ,  7-O ) :   2.0440 B(  6-C ,  8-C ) :   0.8869 B(  8-C , 14-H ) :   0.9054
B(  8-C , 15-H ) :   0.9169

MP2 TOTAL ENERGY:     -437.190664341 Eh
FINAL SINGLE POINT ENERGY      -437.190664340956

DIPOLE MOMENT
-------------
                                X             Y             Z
Electronic contribution:      2.34541      -3.42888       1.89420
Nuclear contribution   :     -2.76952       4.33742      -2.56422
                        -----------------------------------------
Total Dipole Moment    :     -0.42411       0.90854      -0.67002
                        -----------------------------------------
Magnitude (a.u.)       :      1.20592
Magnitude (Debye)      :      3.06521

                             ****ORCA TERMINATED NORMALLY****
TOTAL RUN TIME: 0 days 0 hours 17 minutes 31 seconds 604 msec
