                         Program Version 3.0.3 - RELEASE   -
|  1> ! RI-MP2 RIJK def2-TZVP def2-TZVP/C def2-TZVP/JK TIGHTSCF
|  2> % maxcore 2000
|  3> % mp2 density relaxed end
|  4> *xyz 0 1
|  5>  C       -0.0411306019     1.4739165785     0.0432257946
|  6>  C       -0.0150322262     0.0195212390     0.0280714420
|  7>  C        0.0223305503    -1.1824182345     0.0134364640
|  8>  C        0.0340368649    -2.6440809666    -0.0006528161
|  9>  C       -1.4162164162    -3.2040036346    -0.1589108380
| 10>  C       -1.4823853876    -4.6539277682    -0.0017598857
| 11>  N       -1.5292007199    -5.7988537032     0.1427263436
| 12>  C        0.9108928039    -3.1575540522    -1.0671019759
| 13>  N        1.5922907285    -3.5590714931    -1.9082070207
| 14>  H        0.6099532382     1.8829403068    -0.7362539759
| 15>  H       -1.0535003548     1.8521855024    -0.1326522397
| 16>  H        0.3013863189     1.8644928968     1.0070263651
| 17>  H        0.4319934739    -3.0179329573     0.9518113766
| 18>  H       -2.0447436387    -2.7300789529     0.6003140292
| 19>  H       -1.8106334833    -2.9189569909    -1.1380874232
| 20> *
| 21>
| 22>                          ****END OF INPUT****

CARTESIAN COORDINATES (ANGSTROEM)
---------------------------------
  C     -0.041131    1.473917    0.043226
  C     -0.015032    0.019521    0.028071
  C      0.022331   -1.182418    0.013436
  C      0.034037   -2.644081   -0.000653
  C     -1.416216   -3.204004   -0.158911
  C     -1.482385   -4.653928   -0.001760
  N     -1.529201   -5.798854    0.142726
  C      0.910893   -3.157554   -1.067102
  N      1.592291   -3.559071   -1.908207
  H      0.609953    1.882940   -0.736254
  H     -1.053500    1.852186   -0.132652
  H      0.301386    1.864493    1.007026
  H      0.431993   -3.017933    0.951811
  H     -2.044744   -2.730079    0.600314
  H     -1.810633   -2.918957   -1.138087

 Total Charge           Charge          ....    0
 Multiplicity           Mult            ....    1
 Number of Electrons    NEL             ....   62
 Basis Dimension        Dim             ....  315

ORBITAL ENERGIES
----------------

  NO   OCC          E(Eh)            E(eV)
   0   2.0000     -15.588373      -424.1812
   1   2.0000     -15.588263      -424.1782
   2   2.0000     -11.346120      -308.7436
   3   2.0000     -11.319047      -308.0069
   4   2.0000     -11.290637      -307.2338
   5   2.0000     -11.289952      -307.2152
   6   2.0000     -11.271799      -306.7213
   7   2.0000     -11.267909      -306.6154
   8   2.0000     -11.257198      -306.3239
   9   2.0000      -1.242922       -33.8216
  10   2.0000      -1.232929       -33.5497
  11   2.0000      -1.154314       -31.4105
  12   2.0000      -1.081577       -29.4312
  13   2.0000      -1.011219       -27.5167
  14   2.0000      -0.958609       -26.0851
  15   2.0000      -0.777627       -21.1603
  16   2.0000      -0.736406       -20.0386
  17   2.0000      -0.695815       -18.9341
  18   2.0000      -0.650320       -17.6961
  19   2.0000      -0.645914       -17.5762
  20   2.0000      -0.620562       -16.8863
  21   2.0000      -0.612348       -16.6628
  22   2.0000      -0.609135       -16.5754
  23   2.0000      -0.571575       -15.5534
  24   2.0000      -0.569598       -15.4996
  25   2.0000      -0.490258       -13.3406
  26   2.0000      -0.484110       -13.1733
  27   2.0000      -0.475994       -12.9525
  28   2.0000      -0.473017       -12.8714
  29   2.0000      -0.411759       -11.2045
  30   2.0000      -0.408621       -11.1191
  31   0.0000       0.100778         2.7423
  32   0.0000       0.123710         3.3663
  33   0.0000       0.132192         3.5971
  34   0.0000       0.142918         3.8890
  35   0.0000       0.152512         4.1501

MULLIKEN ATOMIC CHARGES
-----------------------
   0 C :   -0.481712
   1 C :    0.139038
   2 C :   -0.051079
   3 C :   -0.123224
   4 C :   -0.081506
   5 C :   -0.198263
   6 N :   -0.040496
   7 C :   -0.159866
   8 N :   -0.042972
   9 H :    0.175002
  10 H :    0.168463
  11 H :    0.170740
  12 H :    0.171971
  13 H :    0.176355
  14 H :    0.177550
Sum of atomic charges:    0.0000000

LOEWDIN ATOMIC CHARGES
----------------------
   0 C :   -0.284221
   1 C :   -0.072482
   2 C :   -0.054637
   3 C :   -0.212990
   4 C :   -0.187638
   5 C :   -0.187121
   6 N :    0.077719
   7 C :   -0.147880
   8 N :    0.085455
   9 H :    0.147314
  10 H :    0.144886
  11 H :    0.145543
  12 H :    0.198165
  13 H :    0.173378
  14 H :    0.174508

  Mayer bond orders larger than 0.1
B(  0-C ,  1-C ) :   0.8365 B(  0-C ,  9-H ) :   0.9439 B(  0-C , 10-H ) :   0.9443
B(  0-C , 11-H ) :   0.9456 B(  1-C ,  2-C ) :   2.6370 B(  1-C ,  3-C ) :  -0.1252
B(  2-C ,  3-C ) :   1.1079 B(  3-C ,  4-C ) :   0.9114 B(  3-C ,  7-C ) :   0.9277
B(  3-C , 12-H ) :   0.9115 B(  4-C ,  5-C ) :   0.9271 B(  4-C , 13-H ) :   0.9093
B(  4-C , 14-H ) :   0.8920 B(  5-C ,  6-N ) :   2.8596 B(  7-C ,  8-N ) :   2.8445

MP2 TOTAL ENERGY:     -378.981493230 Eh
FINAL SINGLE POINT ENERGY      -378.981493229525

DIPOLE MOMENT
-------------
                                X             Y             Z
Electronic contribution:      1.31844      -8.81954      -1.47490
Nuclear contribution   :     -2.07570      11.13036       2.31813
                        -----------------------------------------
Total Dipole Moment    :     -0.75726       2.31082       0.84323
                        -----------------------------------------
Magnitude (a.u.)       :      2.57379
Magnitude (Debye)      :      6.54205

                             ****ORCA TERMINATED NORMALLY****
TOTAL RUN TIME: 0 days 0 hours 11 minutes 45 seconds 872 msec
