                         Program Version 3.0.3 - RELEASE   -
|  1> ! RI-MP2 RIJK def2-TZVP def2-TZVP/C def2-TZVP/JK TIGHTSCF
|  2> % maxcore 2000
|  3> % mp2 density relaxed end
|  4> *xyz 0 1
|  5>  C       -0.0242421196     1.5412324989    -0.0515236665
|  6>  C       -0.0072657614     0.0140245098     0.0468037409
|  7>  C       -1.3999820633    -0.6069257398     0.0080705024
|  8>  O       -2.0077376410    -0.2539984350    -1.2390375642
|  9>  C       -3.3853836043    -0.6102300005    -1.2891439819
| 10>  C       -3.5821799503    -2.1220704840    -1.1591091904
| 11>  C       -2.8565986452    -2.6508925583     0.0877577184
| 12>  C       -1.4046345132    -2.1414725140     0.1212014278
| 13>  O       -0.6293950558    -2.7165186408    -0.9244568691
| 14>  H        0.9920628639     1.9461667101    -0.0361904821
| 15>  H       -0.5080296548     1.8632394573    -0.9769397930
| 16>  H       -0.5730952854     1.9874491147     0.7858190309
| 17>  H        0.5890335941    -0.4156285371    -0.7645900190
| 18>  H        0.4724349434    -0.3010583837     0.9817532312
| 19>  H       -2.0064014151    -0.1909364140     0.8324725717
| 20>  H       -3.9286908326    -0.0868047476    -0.4842310424
| 21>  H       -3.7620392556    -0.2369229919    -2.2460633175
| 22>  H       -4.6517647851    -2.3558177063    -1.1200144650
| 23>  H       -3.1817035911    -2.6143072964    -2.0531725647
| 24>  H       -3.3728832452    -2.3089731406     0.9948875615
| 25>  H       -2.8582883312    -3.7449200088     0.1041104474
| 26>  H       -0.9245746428    -2.4441015262     1.0589541312
| 27>  H       -0.8289924184    -2.2036482357    -1.7176368576
| 28> *
| 29>
| 30>                          ****END OF INPUT****

CARTESIAN COORDINATES (ANGSTROEM)
---------------------------------
  C     -0.024242    1.541232   -0.051524
  C     -0.007266    0.014025    0.046804
  C     -1.399982   -0.606926    0.008071
  O     -2.007738   -0.253998   -1.239038
  C     -3.385384   -0.610230   -1.289144
  C     -3.582180   -2.122070   -1.159109
  C     -2.856599   -2.650893    0.087758
  C     -1.404635   -2.141473    0.121201
  O     -0.629395   -2.716519   -0.924457
  H      0.992063    1.946167   -0.036190
  H     -0.508030    1.863239   -0.976940
  H     -0.573095    1.987449    0.785819
  H      0.589034   -0.415629   -0.764590
  H      0.472435   -0.301058    0.981753
  H     -2.006401   -0.190936    0.832473
  H     -3.928691   -0.086805   -0.484231
  H     -3.762039   -0.236923   -2.246063
  H     -4.651765   -2.355818   -1.120014
  H     -3.181704   -2.614307   -2.053173
  H     -3.372883   -2.308973    0.994888
  H     -2.858288   -3.744920    0.104110
  H     -0.924575   -2.444102    1.058954
  H     -0.828992   -2.203648   -1.717637

 Total Charge           Charge          ....    0
 Multiplicity           Mult            ....    1
 Number of Electrons    NEL             ....   72
 Basis Dimension        Dim             ....  363

ORBITAL ENERGIES
----------------

  NO   OCC          E(Eh)            E(eV)
   0   2.0000     -20.558155      -559.4158
   1   2.0000     -20.547084      -559.1146
   2   2.0000     -11.278228      -306.8962
   3   2.0000     -11.277616      -306.8795
   4   2.0000     -11.275690      -306.8271
   5   2.0000     -11.226302      -305.4832
   6   2.0000     -11.223610      -305.4099
   7   2.0000     -11.217795      -305.2517
   8   2.0000     -11.208255      -304.9921
   9   2.0000      -1.385530       -37.7022
  10   2.0000      -1.348450       -36.6932
  11   2.0000      -1.069000       -29.0890
  12   2.0000      -1.064443       -28.9650
  13   2.0000      -0.986522       -26.8446
  14   2.0000      -0.895428       -24.3658
  15   2.0000      -0.865844       -23.5608
  16   2.0000      -0.806475       -21.9453
  17   2.0000      -0.771177       -20.9848
  18   2.0000      -0.703040       -19.1307
  19   2.0000      -0.662174       -18.0187
  20   2.0000      -0.652936       -17.7673
  21   2.0000      -0.634884       -17.2761
  22   2.0000      -0.594690       -16.1823
  23   2.0000      -0.588844       -16.0233
  24   2.0000      -0.580323       -15.7914
  25   2.0000      -0.569523       -15.4975
  26   2.0000      -0.550468       -14.9790
  27   2.0000      -0.525495       -14.2994
  28   2.0000      -0.511190       -13.9102
  29   2.0000      -0.502763       -13.6809
  30   2.0000      -0.492412       -13.3992
  31   2.0000      -0.479032       -13.0351
  32   2.0000      -0.469614       -12.7788
  33   2.0000      -0.455956       -12.4072
  34   2.0000      -0.436301       -11.8724
  35   2.0000      -0.400665       -10.9026
  36   0.0000       0.133668         3.6373
  37   0.0000       0.150216         4.0876
  38   0.0000       0.157560         4.2874
  39   0.0000       0.166644         4.5346
  40   0.0000       0.189897         5.1674

MULLIKEN ATOMIC CHARGES
-----------------------
   0 C :   -0.392488
   1 C :   -0.140948
   2 C :   -0.076865
   3 O :   -0.324996
   4 C :   -0.075231
   5 C :   -0.277939
   6 C :   -0.169078
   7 C :    0.116488
   8 O :   -0.476741
   9 H :    0.133332
  10 H :    0.143006
  11 H :    0.113206
  12 H :    0.112241
  13 H :    0.106101
  14 H :    0.078242
  15 H :    0.094461
  16 H :    0.128762
  17 H :    0.124915
  18 H :    0.121370
  19 H :    0.106314
  20 H :    0.127908
  21 H :    0.103959
  22 H :    0.323979
Sum of atomic charges:    0.0000000

LOEWDIN ATOMIC CHARGES
----------------------
   0 C :   -0.318808
   1 C :   -0.270681
   2 C :   -0.313025
   3 O :    0.166932
   4 C :   -0.315084
   5 C :   -0.276233
   6 C :   -0.250647
   7 C :   -0.328191
   8 O :   -0.014228
   9 H :    0.120605
  10 H :    0.124876
  11 H :    0.119026
  12 H :    0.141400
  13 H :    0.142478
  14 H :    0.141982
  15 H :    0.121342
  16 H :    0.129104
  17 H :    0.140005
  18 H :    0.138534
  19 H :    0.140092
  20 H :    0.140780
  21 H :    0.145566
  22 H :    0.174175

  Mayer bond orders larger than 0.1
B(  0-C ,  1-C ) :   0.9161 B(  0-C ,  9-H ) :   0.9426 B(  0-C , 10-H ) :   0.9379
B(  0-C , 11-H ) :   0.9359 B(  1-C ,  2-C ) :   0.9425 B(  1-C , 12-H ) :   0.9173
B(  1-C , 13-H ) :   0.9318 B(  2-C ,  3-O ) :   0.8940 B(  2-C ,  7-C ) :   0.9442
B(  2-C , 14-H ) :   0.9236 B(  3-O ,  4-C ) :   0.9197 B(  4-C ,  5-C ) :   0.9433
B(  4-C , 15-H ) :   0.9340 B(  4-C , 16-H ) :   0.9307 B(  5-C ,  6-C ) :   0.9095
B(  5-C , 17-H ) :   0.9254 B(  5-C , 18-H ) :   0.9299 B(  6-C ,  7-C ) :   0.9020
B(  6-C , 19-H ) :   0.9242 B(  6-C , 20-H ) :   0.9288 B(  7-C ,  8-O ) :   0.9146
B(  7-C , 21-H ) :   0.9296 B(  8-O , 22-H ) :   0.8256

MP2 TOTAL ENERGY:     -424.746364423 Eh
FINAL SINGLE POINT ENERGY      -424.746364422765

DIPOLE MOMENT
-------------
                                X             Y             Z
Electronic contribution:      0.24200      -3.23114      -2.01582
Nuclear contribution   :     -0.92076       3.46106       2.30269
                        -----------------------------------------
Total Dipole Moment    :     -0.67876       0.22991       0.28687
                        -----------------------------------------
Magnitude (a.u.)       :      0.77192
Magnitude (Debye)      :      1.96207

                             ****ORCA TERMINATED NORMALLY****
TOTAL RUN TIME: 0 days 0 hours 19 minutes 46 seconds 597 msec
