                         Program Version 3.0.3 - RELEASE   -
|  1> ! RI-MP2 RIJK def2-TZVP def2-TZVP/C def2-TZVP/JK TIGHTSCF
|  2> % maxcore 2000
|  3> % mp2 density relaxed end
|  4> *xyz 0 1
|  5>  O       -0.1301076390     1.4850562199     0.0011635653
|  6>  C       -0.0471130152     0.1223353942    -0.0639793798
|  7>  C       -1.1693192051    -0.8787303769    -0.1028476388
|  8>  N       -0.4697138276    -1.6286369690    -1.1469989874
|  9>  C        0.6362164547    -0.7463187256    -1.1286539972
| 10>  O        1.6700182330    -0.7358129352    -1.7268387000
| 11>  C       -0.3409302004    -0.7881825402     1.1687404316
| 12>  C        0.5121618138    -1.8472598149     1.6172870982
| 13>  C        1.2265385205    -2.7447867203     1.9798151103
| 14>  H        0.7192253032     1.8294064695     0.3017313250
| 15>  H       -2.2370429297    -0.7110628019    -0.1463059175
| 16>  H       -0.3361271508    -2.6328313018    -1.0877265227
| 17>  H       -0.8186345992    -0.1994353843     1.9501797217
| 18>  H        1.8648183517    -3.5290543235     2.3045200312
| 19> *
| 20>
| 21>                          ****END OF INPUT****

CARTESIAN COORDINATES (ANGSTROEM)
---------------------------------
  O     -0.130108    1.485056    0.001164
  C     -0.047113    0.122335   -0.063979
  C     -1.169319   -0.878730   -0.102848
  N     -0.469714   -1.628637   -1.146999
  C      0.636216   -0.746319   -1.128654
  O      1.670018   -0.735813   -1.726839
  C     -0.340930   -0.788183    1.168740
  C      0.512162   -1.847260    1.617287
  C      1.226539   -2.744787    1.979815
  H      0.719225    1.829406    0.301731
  H     -2.237043   -0.711063   -0.146306
  H     -0.336127   -2.632831   -1.087727
  H     -0.818635   -0.199435    1.950180
  H      1.864818   -3.529054    2.304520

 Total Charge           Charge          ....    0
 Multiplicity           Mult            ....    1
 Number of Electrons    NEL             ....   64
 Basis Dimension        Dim             ....  309

ORBITAL ENERGIES
----------------

  NO   OCC          E(Eh)            E(eV)
   0   2.0000     -20.602907      -560.6336
   1   2.0000     -20.552805      -559.2703
   2   2.0000     -15.594322      -424.3431
   3   2.0000     -11.370733      -309.4134
   4   2.0000     -11.332408      -308.3705
   5   2.0000     -11.304992      -307.6245
   6   2.0000     -11.293085      -307.3005
   7   2.0000     -11.252466      -306.1952
   8   2.0000     -11.241989      -305.9101
   9   2.0000      -1.426312       -38.8119
  10   2.0000      -1.403972       -38.2040
  11   2.0000      -1.301218       -35.4079
  12   2.0000      -1.119648       -30.4672
  13   2.0000      -1.039822       -28.2950
  14   2.0000      -0.925651       -25.1883
  15   2.0000      -0.877479       -23.8774
  16   2.0000      -0.796281       -21.6679
  17   2.0000      -0.750258       -20.4156
  18   2.0000      -0.724488       -19.7143
  19   2.0000      -0.703590       -19.1456
  20   2.0000      -0.692353       -18.8399
  21   2.0000      -0.659376       -17.9425
  22   2.0000      -0.619345       -16.8532
  23   2.0000      -0.601224       -16.3601
  24   2.0000      -0.571714       -15.5571
  25   2.0000      -0.564160       -15.3516
  26   2.0000      -0.517693       -14.0871
  27   2.0000      -0.459756       -12.5106
  28   2.0000      -0.449590       -12.2340
  29   2.0000      -0.420351       -11.4383
  30   2.0000      -0.400748       -10.9049
  31   2.0000      -0.370607       -10.0847
  32   0.0000       0.125689         3.4202
  33   0.0000       0.134369         3.6564
  34   0.0000       0.148241         4.0338
  35   0.0000       0.153924         4.1885
  36   0.0000       0.159802         4.3484

MULLIKEN ATOMIC CHARGES
-----------------------
   0 O :   -0.444089
   1 C :    0.153320
   2 C :    0.016344
   3 N :   -0.306617
   4 C :    0.197043
   5 O :   -0.270532
   6 C :   -0.326252
   7 C :    0.017714
   8 C :   -0.131972
   9 H :    0.346702
  10 H :    0.161319
  11 H :    0.243203
  12 H :    0.146997
  13 H :    0.196819
Sum of atomic charges:    0.0000000

LOEWDIN ATOMIC CHARGES
----------------------
   0 O :    0.058828
   1 C :   -0.274267
   2 C :   -0.162904
   3 N :    0.119781
   4 C :   -0.380240
   5 O :    0.149433
   6 C :   -0.156156
   7 C :   -0.100524
   8 C :   -0.082294
   9 H :    0.200601
  10 H :    0.144222
  11 H :    0.177698
  12 H :    0.176185
  13 H :    0.129637

  Mayer bond orders larger than 0.1
B(  0-O ,  1-C ) :   1.0280 B(  0-O ,  9-H ) :   0.8249 B(  1-C ,  2-C ) :   0.8394
B(  1-C ,  4-C ) :   0.8894 B(  1-C ,  6-C ) :   0.8270 B(  2-C ,  3-N ) :   0.9803
B(  2-C ,  6-C ) :   0.8464 B(  2-C , 10-H ) :   0.9046 B(  3-N ,  4-C ) :   1.0866
B(  3-N , 11-H ) :   0.8517 B(  4-C ,  5-O ) :   2.0314 B(  6-C ,  7-C ) :   1.1276
B(  6-C ,  8-C ) :  -0.1037 B(  6-C , 12-H ) :   0.9264 B(  7-C ,  8-C ) :   2.5605
B(  8-C , 13-H ) :   0.9006

MP2 TOTAL ENERGY:     -435.901633297 Eh
FINAL SINGLE POINT ENERGY      -435.901633296910

DIPOLE MOMENT
-------------
                                X             Y             Z
Electronic contribution:      1.26773       0.89482      -1.99073
Nuclear contribution   :     -1.77653      -1.12473       3.03309
                        -----------------------------------------
Total Dipole Moment    :     -0.50880      -0.22991       1.04236
                        -----------------------------------------
Magnitude (a.u.)       :      1.18247
Magnitude (Debye)      :      3.00561

                             ****ORCA TERMINATED NORMALLY****
TOTAL RUN TIME: 0 days 0 hours 14 minutes 55 seconds 281 msec
