                         Program Version 3.0.3 - RELEASE   -
|  1> ! RI-MP2 RIJK def2-TZVP def2-TZVP/C def2-TZVP/JK TIGHTSCF
|  2> % maxcore 2000
|  3> % mp2 density relaxed end
|  4> *xyz 0 1
|  5>  C        0.1583337248     1.4815904824    -0.1505355438
|  6>  C       -0.1122451999    -0.0138882091     0.0960630630
|  7>  C        0.6391978610    -0.5701924221     1.2715065212
|  8>  C        0.1052521194    -1.0112860138     2.4130295502
|  9>  C        1.1421544744    -1.4347919284     3.4237097618
| 10>  C        2.4314689048    -1.5082119350     2.5716211282
| 11>  C        2.1632393240    -0.6317644200     1.3200729712
| 12>  C        2.8334652856    -1.1696692109     0.0500316911
| 13>  H        1.2179221646     1.6720897977    -0.3495043616
| 14>  H       -0.4115136662     1.8432801571    -1.0120809642
| 15>  H       -0.1280448349     2.0780463607     0.7214907314
| 16>  H       -1.1861796569    -0.1674522392     0.2507089050
| 17>  H        0.1514512736    -0.5720885184    -0.8126375680
| 18>  H       -0.9595802203    -1.0271427753     2.6253550471
| 19>  H        1.2264731596    -0.6911265041     4.2298684481
| 20>  H        0.9064717940    -2.3869903567     3.9130028973
| 21>  H        3.3280117360    -1.2014683851     3.1175519792
| 22>  H        2.5905426866    -2.5431127420     2.2466594406
| 23>  H        2.5488247607     0.3853014260     1.4937025568
| 24>  H        2.4583038826    -2.1698085427    -0.1954066599
| 25>  H        2.6543945107    -0.5218158102    -0.8142779239
| 26>  H        3.9177155259    -1.2437099708     0.1861941891
| 27> *
| 28>
| 29>                          ****END OF INPUT****

CARTESIAN COORDINATES (ANGSTROEM)
---------------------------------
  C      0.158334    1.481590   -0.150536
  C     -0.112245   -0.013888    0.096063
  C      0.639198   -0.570192    1.271507
  C      0.105252   -1.011286    2.413030
  C      1.142154   -1.434792    3.423710
  C      2.431469   -1.508212    2.571621
  C      2.163239   -0.631764    1.320073
  C      2.833465   -1.169669    0.050032
  H      1.217922    1.672090   -0.349504
  H     -0.411514    1.843280   -1.012081
  H     -0.128045    2.078046    0.721491
  H     -1.186180   -0.167452    0.250709
  H      0.151451   -0.572089   -0.812638
  H     -0.959580   -1.027143    2.625355
  H      1.226473   -0.691127    4.229868
  H      0.906472   -2.386990    3.913003
  H      3.328012   -1.201468    3.117552
  H      2.590543   -2.543113    2.246659
  H      2.548825    0.385301    1.493703
  H      2.458304   -2.169809   -0.195407
  H      2.654395   -0.521816   -0.814278
  H      3.917716   -1.243710    0.186194

 Total Charge           Charge          ....    0
 Multiplicity           Mult            ....    1
 Number of Electrons    NEL             ....   62
 Basis Dimension        Dim             ....  332

ORBITAL ENERGIES
----------------

  NO   OCC          E(Eh)            E(eV)
   0   2.0000     -11.224236      -305.4270
   1   2.0000     -11.222310      -305.3746
   2   2.0000     -11.218541      -305.2720
   3   2.0000     -11.216133      -305.2065
   4   2.0000     -11.213941      -305.1468
   5   2.0000     -11.213434      -305.1331
   6   2.0000     -11.211112      -305.0699
   7   2.0000     -11.208832      -305.0078
   8   2.0000      -1.136020       -30.9127
   9   2.0000      -1.037560       -28.2334
  10   2.0000      -1.003677       -27.3114
  11   2.0000      -0.945788       -25.7362
  12   2.0000      -0.880315       -23.9546
  13   2.0000      -0.838924       -22.8283
  14   2.0000      -0.771867       -21.0036
  15   2.0000      -0.693919       -18.8825
  16   2.0000      -0.648147       -17.6370
  17   2.0000      -0.627449       -17.0738
  18   2.0000      -0.606145       -16.4941
  19   2.0000      -0.571172       -15.5424
  20   2.0000      -0.564008       -15.3474
  21   2.0000      -0.555747       -15.1226
  22   2.0000      -0.517812       -14.0904
  23   2.0000      -0.509566       -13.8660
  24   2.0000      -0.503488       -13.7006
  25   2.0000      -0.488915       -13.3040
  26   2.0000      -0.472626       -12.8608
  27   2.0000      -0.468199       -12.7403
  28   2.0000      -0.457688       -12.4543
  29   2.0000      -0.441614       -12.0169
  30   2.0000      -0.327822        -8.9205
  31   0.0000       0.134306         3.6546
  32   0.0000       0.154657         4.2084
  33   0.0000       0.158945         4.3251
  34   0.0000       0.164536         4.4773
  35   0.0000       0.176616         4.8060

MULLIKEN ATOMIC CHARGES
-----------------------
   0 C :   -0.399628
   1 C :   -0.250434
   2 C :    0.023817
   3 C :   -0.212923
   4 C :   -0.149221
   5 C :   -0.264866
   6 C :   -0.001556
   7 C :   -0.431398
   8 H :    0.125696
   9 H :    0.131481
  10 H :    0.129676
  11 H :    0.118582
  12 H :    0.124202
  13 H :    0.118529
  14 H :    0.108633
  15 H :    0.115598
  16 H :    0.120424
  17 H :    0.106179
  18 H :    0.093798
  19 H :    0.128077
  20 H :    0.130547
  21 H :    0.134785
Sum of atomic charges:    0.0000000

LOEWDIN ATOMIC CHARGES
----------------------
   0 C :   -0.309618
   1 C :   -0.254949
   2 C :   -0.152305
   3 C :   -0.141533
   4 C :   -0.245165
   5 C :   -0.217025
   6 C :   -0.231172
   7 C :   -0.294628
   8 H :    0.119479
   9 H :    0.120232
  10 H :    0.122248
  11 H :    0.142744
  12 H :    0.142407
  13 H :    0.135531
  14 H :    0.137531
  15 H :    0.133639
  16 H :    0.130267
  17 H :    0.139572
  18 H :    0.153799
  19 H :    0.123950
  20 H :    0.120779
  21 H :    0.124219

  Mayer bond orders larger than 0.1
B(  0-C ,  1-C ) :   0.9095 B(  0-C ,  8-H ) :   0.9368 B(  0-C ,  9-H ) :   0.9375
B(  0-C , 10-H ) :   0.9383 B(  1-C ,  2-C ) :   0.8990 B(  1-C , 11-H ) :   0.9409
B(  1-C , 12-H ) :   0.9367 B(  2-C ,  3-C ) :   1.7383 B(  2-C ,  6-C ) :   0.9034
B(  3-C ,  4-C ) :   0.9385 B(  3-C , 13-H ) :   0.9246 B(  4-C ,  5-C ) :   0.9510
B(  4-C , 14-H ) :   0.9108 B(  4-C , 15-H ) :   0.9318 B(  5-C ,  6-C ) :   0.9312
B(  5-C , 16-H ) :   0.9356 B(  5-C , 17-H ) :   0.9289 B(  6-C ,  7-C ) :   0.8894
B(  6-C , 18-H ) :   0.9152 B(  7-C , 19-H ) :   0.9345 B(  7-C , 20-H ) :   0.9383
B(  7-C , 21-H ) :   0.9380

MP2 TOTAL ENERGY:     -312.514736408 Eh
FINAL SINGLE POINT ENERGY      -312.514736408457

DIPOLE MOMENT
-------------
                                X             Y             Z
Electronic contribution:     -1.55008      -1.52583       2.93689
Nuclear contribution   :      1.58149       1.59998      -2.97887
                        -----------------------------------------
Total Dipole Moment    :      0.03140       0.07414      -0.04198
                        -----------------------------------------
Magnitude (a.u.)       :      0.09081
Magnitude (Debye)      :      0.23081

                             ****ORCA TERMINATED NORMALLY****
TOTAL RUN TIME: 0 days 0 hours 16 minutes 14 seconds 781 msec
