                         Program Version 3.0.3 - RELEASE   -
|  1> ! RI-MP2 RIJK def2-TZVP def2-TZVP/C def2-TZVP/JK TIGHTSCF
|  2> % maxcore 2000
|  3> % mp2 density relaxed end
|  4> *xyz 0 1
|  5>  C        0.7017926001     1.4862166106    -0.3007184203
|  6>  C        0.1222375960     0.1014146495     0.0128257154
|  7>  C        0.2875031129    -0.9463958715    -1.1305179728
|  8>  N        1.2850612818    -1.9612200561    -0.7496380807
|  9>  C        2.5979304545    -1.4129184061    -0.3779838829
| 10>  C        1.6067486203    -1.7623278495     0.6680331064
| 11>  C        0.7462744373    -0.6379366134     1.2527095921
| 12>  C        1.4783782285     0.2266061788     2.1747197731
| 13>  N        2.0595551937     0.9072380785     2.9065892531
| 14>  H        1.7746921510     1.4632010582    -0.5096849315
| 15>  H        0.2021711360     1.9016750848    -1.1815690988
| 16>  H        0.5463123053     2.1783093368     0.5315200716
| 17>  H       -0.9435630303     0.2405795660     0.2147639228
| 18>  H       -0.6563768172    -1.4738797434    -1.3013994812
| 19>  H        0.5756515482    -0.4753405256    -2.0756520452
| 20>  H        3.4339008289    -2.0799614038    -0.5653362663
| 21>  H        2.8086928019    -0.3648855206    -0.5660571567
| 22>  H        1.7395929475    -2.6492516359     1.2799326120
| 23>  H       -0.0627550565    -1.1034108171     1.8271188697
| 24> *
| 25>
| 26>                          ****END OF INPUT****

CARTESIAN COORDINATES (ANGSTROEM)
---------------------------------
  C      0.701793    1.486217   -0.300718
  C      0.122238    0.101415    0.012826
  C      0.287503   -0.946396   -1.130518
  N      1.285061   -1.961220   -0.749638
  C      2.597930   -1.412918   -0.377984
  C      1.606749   -1.762328    0.668033
  C      0.746274   -0.637937    1.252710
  C      1.478378    0.226606    2.174720
  N      2.059555    0.907238    2.906589
  H      1.774692    1.463201   -0.509685
  H      0.202171    1.901675   -1.181569
  H      0.546312    2.178309    0.531520
  H     -0.943563    0.240580    0.214764
  H     -0.656377   -1.473880   -1.301399
  H      0.575652   -0.475341   -2.075652
  H      3.433901   -2.079961   -0.565336
  H      2.808693   -0.364886   -0.566057
  H      1.739593   -2.649252    1.279933
  H     -0.062755   -1.103411    1.827119

 Total Charge           Charge          ....    0
 Multiplicity           Mult            ....    1
 Number of Electrons    NEL             ....   66
 Basis Dimension        Dim             ....  339

ORBITAL ENERGIES
----------------

  NO   OCC          E(Eh)            E(eV)
   0   2.0000     -15.574644      -423.8076
   1   2.0000     -15.569449      -423.6662
   2   2.0000     -11.290814      -307.2387
   3   2.0000     -11.281111      -306.9746
   4   2.0000     -11.273730      -306.7738
   5   2.0000     -11.267209      -306.5964
   6   2.0000     -11.267098      -306.5933
   7   2.0000     -11.262372      -306.4647
   8   2.0000     -11.232029      -305.6391
   9   2.0000      -1.302077       -35.4313
  10   2.0000      -1.219133       -33.1743
  11   2.0000      -1.103191       -30.0194
  12   2.0000      -1.035480       -28.1769
  13   2.0000      -0.971748       -26.4426
  14   2.0000      -0.859745       -23.3949
  15   2.0000      -0.833193       -22.6723
  16   2.0000      -0.802731       -21.8434
  17   2.0000      -0.723548       -19.6887
  18   2.0000      -0.692149       -18.8343
  19   2.0000      -0.633829       -17.2474
  20   2.0000      -0.620504       -16.8848
  21   2.0000      -0.607099       -16.5200
  22   2.0000      -0.588120       -16.0036
  23   2.0000      -0.568453       -15.4684
  24   2.0000      -0.554621       -15.0920
  25   2.0000      -0.523397       -14.2424
  26   2.0000      -0.511326       -13.9139
  27   2.0000      -0.508920       -13.8484
  28   2.0000      -0.481487       -13.1019
  29   2.0000      -0.459350       -12.4996
  30   2.0000      -0.452682       -12.3181
  31   2.0000      -0.448772       -12.2117
  32   2.0000      -0.387068       -10.5326
  33   0.0000       0.118390         3.2216
  34   0.0000       0.147666         4.0182
  35   0.0000       0.157590         4.2882
  36   0.0000       0.169797         4.6204
  37   0.0000       0.177930         4.8417

MULLIKEN ATOMIC CHARGES
-----------------------
   0 C :   -0.417914
   1 C :   -0.089096
   2 C :   -0.139671
   3 N :   -0.218226
   4 C :   -0.204017
   5 C :   -0.032448
   6 C :    0.027951
   7 C :   -0.221576
   8 N :   -0.050340
   9 H :    0.127926
  10 H :    0.141296
  11 H :    0.154395
  12 H :    0.115482
  13 H :    0.132291
  14 H :    0.125550
  15 H :    0.136372
  16 H :    0.130997
  17 H :    0.136841
  18 H :    0.144189
Sum of atomic charges:   -0.0000000

LOEWDIN ATOMIC CHARGES
----------------------
   0 C :   -0.290723
   1 C :   -0.224605
   2 C :   -0.246241
   3 N :    0.114621
   4 C :   -0.229863
   5 C :   -0.213740
   6 C :   -0.197341
   7 C :   -0.169453
   8 N :    0.061667
   9 H :    0.122783
  10 H :    0.127941
  11 H :    0.131956
  12 H :    0.155626
  13 H :    0.135432
  14 H :    0.136882
  15 H :    0.130250
  16 H :    0.128619
  17 H :    0.144935
  18 H :    0.181254

  Mayer bond orders larger than 0.1
B(  0-C ,  1-C ) :   0.9366 B(  0-C ,  9-H ) :   0.9317 B(  0-C , 10-H ) :   0.9342
B(  0-C , 11-H ) :   0.9311 B(  1-C ,  2-C ) :   0.9001 B(  1-C ,  6-C ) :   0.8963
B(  1-C , 12-H ) :   0.9145 B(  2-C ,  3-N ) :   0.9260 B(  2-C , 13-H ) :   0.9292
B(  2-C , 14-H ) :   0.9359 B(  3-N ,  4-C ) :   0.8836 B(  3-N ,  5-C ) :   0.9131
B(  4-C ,  5-C ) :   0.9358 B(  4-C , 15-H ) :   0.9246 B(  4-C , 16-H ) :   0.9119
B(  5-C ,  6-C ) :   0.9032 B(  5-C , 17-H ) :   0.9102 B(  6-C ,  7-C ) :   0.9233
B(  6-C , 18-H ) :   0.9026 B(  7-C ,  8-N ) :   2.8720

MP2 TOTAL ENERGY:     -381.393043472 Eh
FINAL SINGLE POINT ENERGY      -381.393043472492

DIPOLE MOMENT
-------------
                                X             Y             Z
Electronic contribution:      1.69990      -2.09227       5.60248
Nuclear contribution   :     -2.44069       1.81529      -6.45342
                        -----------------------------------------
Total Dipole Moment    :     -0.74079      -0.27698      -0.85094
                        -----------------------------------------
Magnitude (a.u.)       :      1.16172
Magnitude (Debye)      :      2.95285

                             ****ORCA TERMINATED NORMALLY****
TOTAL RUN TIME: 0 days 0 hours 20 minutes 17 seconds 210 msec
