                         Program Version 3.0.3 - RELEASE   -
|  1> ! RI-MP2 RIJK def2-TZVP def2-TZVP/C def2-TZVP/JK TIGHTSCF
|  2> % maxcore 2000
|  3> % mp2 density relaxed end
|  4> *xyz 0 1
|  5>  C       -0.2712345247     1.4245140189     0.0541205606
|  6>  C        0.0435840560    -0.0770950884     0.0119647844
|  7>  C        0.6887114317    -0.4657794320    -1.3253500021
|  8>  C        0.9339355123    -0.4844198589     1.1854149126
|  9>  C        0.3177674497    -0.3950958200     2.6189727094
| 10>  N        0.6236096197    -1.8162512305     2.7887119802
| 11>  C        1.1408567406    -2.0116381953     1.4364304196
| 12>  C        0.3827867257    -2.7133515086     3.7668680287
| 13>  O        0.6380754669    -3.8989725341     3.6930880220
| 14>  H        0.6454400488     2.0183938481    -0.0426135300
| 15>  H       -0.9376992027     1.7079594384    -0.7665286504
| 16>  H       -0.7580912282     1.7127342170     0.9915561906
| 17>  H       -0.9038099272    -0.6284510487     0.1075071914
| 18>  H        1.6386336333     0.0628599473    -1.4685062934
| 19>  H        0.8922728997    -1.5398456085    -1.3815364553
| 20>  H        0.0356366877    -0.2067193808    -2.1646005755
| 21>  H        1.8877200187     0.0488272128     1.1248690975
| 22>  H        0.8320296947     0.2677359287     3.3230662134
| 23>  H       -0.7556608250    -0.1673444219     2.6378550569
| 24>  H        0.5135510599    -2.6721589158     0.8261952369
| 25>  H        2.1709227153    -2.3789632934     1.4033164685
| 26>  H       -0.0731955429    -2.2379823643     4.6608763841
| 27> *
| 28>
| 29>                          ****END OF INPUT****

CARTESIAN COORDINATES (ANGSTROEM)
---------------------------------
  C     -0.271235    1.424514    0.054121
  C      0.043584   -0.077095    0.011965
  C      0.688711   -0.465779   -1.325350
  C      0.933936   -0.484420    1.185415
  C      0.317767   -0.395096    2.618973
  N      0.623610   -1.816251    2.788712
  C      1.140857   -2.011638    1.436430
  C      0.382787   -2.713352    3.766868
  O      0.638075   -3.898973    3.693088
  H      0.645440    2.018394   -0.042614
  H     -0.937699    1.707959   -0.766529
  H     -0.758091    1.712734    0.991556
  H     -0.903810   -0.628451    0.107507
  H      1.638634    0.062860   -1.468506
  H      0.892273   -1.539846   -1.381536
  H      0.035637   -0.206719   -2.164601
  H      1.887720    0.048827    1.124869
  H      0.832030    0.267736    3.323066
  H     -0.755661   -0.167344    2.637855
  H      0.513551   -2.672159    0.826195
  H      2.170923   -2.378963    1.403316
  H     -0.073196   -2.237982    4.660876

 Total Charge           Charge          ....    0
 Multiplicity           Mult            ....    1
 Number of Electrons    NEL             ....   70
 Basis Dimension        Dim             ....  357

ORBITAL ENERGIES
----------------

  NO   OCC          E(Eh)            E(eV)
   0   2.0000     -20.513406      -558.1982
   1   2.0000     -15.580924      -423.9785
   2   2.0000     -11.339298      -308.5580
   3   2.0000     -11.278472      -306.9028
   4   2.0000     -11.268183      -306.6229
   5   2.0000     -11.247786      -306.0678
   6   2.0000     -11.241971      -305.9096
   7   2.0000     -11.225103      -305.4506
   8   2.0000     -11.223544      -305.4082
   9   2.0000      -1.373586       -37.3772
  10   2.0000      -1.270008       -34.5587
  11   2.0000      -1.102051       -29.9883
  12   2.0000      -1.017008       -27.6742
  13   2.0000      -0.954246       -25.9663
  14   2.0000      -0.933800       -25.4100
  15   2.0000      -0.866332       -23.5741
  16   2.0000      -0.782275       -21.2868
  17   2.0000      -0.754699       -20.5364
  18   2.0000      -0.710479       -19.3331
  19   2.0000      -0.673264       -18.3204
  20   2.0000      -0.643484       -17.5101
  21   2.0000      -0.623724       -16.9724
  22   2.0000      -0.593762       -16.1571
  23   2.0000      -0.588887       -16.0244
  24   2.0000      -0.569021       -15.4839
  25   2.0000      -0.547900       -14.9091
  26   2.0000      -0.545922       -14.8553
  27   2.0000      -0.538849       -14.6628
  28   2.0000      -0.513223       -13.9655
  29   2.0000      -0.507190       -13.8014
  30   2.0000      -0.476367       -12.9626
  31   2.0000      -0.471870       -12.8402
  32   2.0000      -0.457834       -12.4583
  33   2.0000      -0.417716       -11.3666
  34   2.0000      -0.372590       -10.1387
  35   0.0000       0.124757         3.3948
  36   0.0000       0.140805         3.8315
  37   0.0000       0.148015         4.0277
  38   0.0000       0.154203         4.1961
  39   0.0000       0.177389         4.8270

MULLIKEN ATOMIC CHARGES
-----------------------
   0 C :   -0.394146
   1 C :   -0.094202
   2 C :   -0.397087
   3 C :   -0.045694
   4 C :   -0.169386
   5 N :   -0.053056
   6 C :   -0.153549
   7 C :    0.121949
   8 O :   -0.365197
   9 H :    0.125111
  10 H :    0.137059
  11 H :    0.129117
  12 H :    0.094765
  13 H :    0.124594
  14 H :    0.135051
  15 H :    0.136328
  16 H :    0.107670
  17 H :    0.122947
  18 H :    0.116481
  19 H :    0.120084
  20 H :    0.126762
  21 H :    0.074400
Sum of atomic charges:    0.0000000

LOEWDIN ATOMIC CHARGES
----------------------
   0 C :   -0.289431
   1 C :   -0.298101
   2 C :   -0.288278
   3 C :   -0.201223
   4 C :   -0.204720
   5 N :    0.175512
   6 C :   -0.195574
   7 C :   -0.428655
   8 O :    0.052344
   9 H :    0.124831
  10 H :    0.125452
  11 H :    0.122568
  12 H :    0.153970
  13 H :    0.124836
  14 H :    0.124391
  15 H :    0.125332
  16 H :    0.150723
  17 H :    0.125808
  18 H :    0.128172
  19 H :    0.132245
  20 H :    0.129807
  21 H :    0.109990

  Mayer bond orders larger than 0.1
B(  0-C ,  1-C ) :   0.9200 B(  0-C ,  9-H ) :   0.9314 B(  0-C , 10-H ) :   0.9388
B(  0-C , 11-H ) :   0.9373 B(  1-C ,  2-C ) :   0.9243 B(  1-C ,  3-C ) :   0.9164
B(  1-C , 12-H ) :   0.9200 B(  2-C , 13-H ) :   0.9313 B(  2-C , 14-H ) :   0.9369
B(  2-C , 15-H ) :   0.9388 B(  3-C ,  4-C ) :   0.9278 B(  3-C ,  6-C ) :   0.9230
B(  3-C , 16-H ) :   0.9146 B(  4-C ,  5-N ) :   0.9220 B(  4-C , 17-H ) :   0.9129
B(  4-C , 18-H ) :   0.9045 B(  5-N ,  6-C ) :   0.8861 B(  5-N ,  7-C ) :   1.1461
B(  6-C , 19-H ) :   0.9117 B(  6-C , 20-H ) :   0.9227 B(  7-C ,  8-O ) :   1.9041
B(  7-C , 21-H ) :   0.9296

MP2 TOTAL ENERGY:     -403.670353577 Eh
FINAL SINGLE POINT ENERGY      -403.670353576815

DIPOLE MOMENT
-------------
                                X             Y             Z
Electronic contribution:      1.02631      -8.79582       9.77281
Nuclear contribution   :     -1.17573      10.43999     -10.51273
                        -----------------------------------------
Total Dipole Moment    :     -0.14942       1.64417      -0.73992
                        -----------------------------------------
Magnitude (a.u.)       :      1.80918
Magnitude (Debye)      :      4.59856

                             ****ORCA TERMINATED NORMALLY****
TOTAL RUN TIME: 0 days 0 hours 20 minutes 23 seconds 930 msec
