                         Program Version 3.0.3 - RELEASE   -
|  1> ! RI-MP2 RIJK def2-TZVP def2-TZVP/C def2-TZVP/JK TIGHTSCF
|  2> % maxcore 2000
|  3> % mp2 density relaxed end
|  4> *xyz 0 1
|  5>  C        0.0947529488     1.5580496140     0.0125007272
|  6>  C       -0.0328349148     0.0654494615    -0.0078072731
|  7>  C        0.9909583264    -0.9225706518    -0.5567373976
|  8>  N        0.4801351636    -2.0569939298    -1.2874008744
|  9>  C       -0.7359938240    -2.0491490923    -0.8908941403
| 10>  O       -1.1444979009    -2.9543596121     0.1023568485
| 11>  C       -0.8990938839    -1.7203992378     0.9557123679
| 12>  C        0.5170548762    -1.0186539817     0.9316550752
| 13>  C       -1.2871663497    -0.7771548279    -0.1797509445
| 14>  H        1.1279287099     1.8613395696     0.2079284280
| 15>  H       -0.2021232077     1.9896164016    -0.9500601217
| 16>  H       -0.5359107224     2.0048659151     0.7889573343
| 17>  H        2.0086148781    -0.6000902421    -0.7473016215
| 18>  H       -1.4228466799    -1.8085614924     1.9051833001
| 19>  H        1.2071545358    -0.9409159094     1.7602421928
| 20>  H       -2.2999130255    -0.4335754746    -0.3626899309
| 21> *
| 22>
| 23>                          ****END OF INPUT****

CARTESIAN COORDINATES (ANGSTROEM)
---------------------------------
  C      0.094753    1.558050    0.012501
  C     -0.032835    0.065449   -0.007807
  C      0.990958   -0.922571   -0.556737
  N      0.480135   -2.056994   -1.287401
  C     -0.735994   -2.049149   -0.890894
  O     -1.144498   -2.954360    0.102357
  C     -0.899094   -1.720399    0.955712
  C      0.517055   -1.018654    0.931655
  C     -1.287166   -0.777155   -0.179751
  H      1.127929    1.861340    0.207928
  H     -0.202123    1.989616   -0.950060
  H     -0.535911    2.004866    0.788957
  H      2.008615   -0.600090   -0.747302
  H     -1.422847   -1.808561    1.905183
  H      1.207155   -0.940916    1.760242
  H     -2.299913   -0.433575   -0.362690

 Total Charge           Charge          ....    0
 Multiplicity           Mult            ....    1
 Number of Electrons    NEL             ....   64
 Basis Dimension        Dim             ....  321

ORBITAL ENERGIES
----------------

  NO   OCC          E(Eh)            E(eV)
   0   2.0000     -20.591104      -560.3124
   1   2.0000     -15.537471      -422.7961
   2   2.0000     -11.354079      -308.9602
   3   2.0000     -11.325914      -308.1938
   4   2.0000     -11.287918      -307.1599
   5   2.0000     -11.265726      -306.5560
   6   2.0000     -11.261671      -306.4456
   7   2.0000     -11.254482      -306.2500
   8   2.0000     -11.240881      -305.8799
   9   2.0000      -1.429341       -38.8943
  10   2.0000      -1.265768       -34.4433
  11   2.0000      -1.156975       -31.4829
  12   2.0000      -1.018865       -27.7247
  13   2.0000      -0.985810       -26.8252
  14   2.0000      -0.889864       -24.2144
  15   2.0000      -0.831661       -22.6307
  16   2.0000      -0.772308       -21.0156
  17   2.0000      -0.735576       -20.0160
  18   2.0000      -0.686575       -18.6827
  19   2.0000      -0.651199       -17.7200
  20   2.0000      -0.618911       -16.8414
  21   2.0000      -0.610471       -16.6118
  22   2.0000      -0.599816       -16.3218
  23   2.0000      -0.574250       -15.6261
  24   2.0000      -0.567903       -15.4534
  25   2.0000      -0.548891       -14.9361
  26   2.0000      -0.493798       -13.4369
  27   2.0000      -0.479348       -13.0437
  28   2.0000      -0.452835       -12.3223
  29   2.0000      -0.432356       -11.7650
  30   2.0000      -0.393680       -10.7126
  31   2.0000      -0.325183        -8.8487
  32   0.0000       0.089060         2.4234
  33   0.0000       0.128826         3.5055
  34   0.0000       0.154642         4.2080
  35   0.0000       0.165983         4.5166
  36   0.0000       0.173695         4.7265

MULLIKEN ATOMIC CHARGES
-----------------------
   0 C :   -0.408556
   1 C :   -0.013033
   2 C :   -0.077594
   3 N :   -0.200151
   4 C :    0.097866
   5 O :   -0.265174
   6 C :    0.014113
   7 C :   -0.138836
   8 C :   -0.030397
   9 H :    0.138413
  10 H :    0.146352
  11 H :    0.140544
  12 H :    0.136289
  13 H :    0.151398
  14 H :    0.155233
  15 H :    0.153533
Sum of atomic charges:    0.0000000

LOEWDIN ATOMIC CHARGES
----------------------
   0 C :   -0.267929
   1 C :   -0.183448
   2 C :   -0.183756
   3 N :    0.142345
   4 C :   -0.310379
   5 O :    0.185183
   6 C :   -0.141823
   7 C :   -0.106031
   8 C :   -0.116319
   9 H :    0.133373
  10 H :    0.134528
  11 H :    0.131092
  12 H :    0.148329
  13 H :    0.146916
  14 H :    0.140085
  15 H :    0.147835

  Mayer bond orders larger than 0.1
B(  0-C ,  1-C ) :   0.8400 B(  0-C ,  9-H ) :   0.9466 B(  0-C , 10-H ) :   0.9373
B(  0-C , 11-H ) :   0.9416 B(  1-C ,  2-C ) :   0.8627 B(  1-C ,  7-C ) :   0.8371
B(  1-C ,  8-C ) :   0.9494 B(  2-C ,  3-N ) :   1.0213 B(  2-C ,  7-C ) :   0.7897
B(  2-C , 12-H ) :   0.9419 B(  3-N ,  4-C ) :   1.7765 B(  4-C ,  5-O ) :   1.0320
B(  4-C ,  8-C ) :   0.9012 B(  5-O ,  6-C ) :   0.8647 B(  6-C ,  7-C ) :   0.9133
B(  6-C ,  8-C ) :   0.9088 B(  6-C , 13-H ) :   0.9033 B(  7-C , 14-H ) :   0.9105
B(  8-C , 15-H ) :   0.9117

MP2 TOTAL ENERGY:     -399.923537547 Eh
FINAL SINGLE POINT ENERGY      -399.923537547000

DIPOLE MOMENT
-------------
                                X             Y             Z
Electronic contribution:     -1.56576      -7.58829      -2.21154
Nuclear contribution   :      1.39558       9.09032       3.01184
                        -----------------------------------------
Total Dipole Moment    :     -0.17018       1.50203       0.80030
                        -----------------------------------------
Magnitude (a.u.)       :      1.71042
Magnitude (Debye)      :      4.34754

                             ****ORCA TERMINATED NORMALLY****
TOTAL RUN TIME: 0 days 0 hours 21 minutes 8 seconds 201 msec
