                         Program Version 3.0.3 - RELEASE   -
|  1> ! RI-MP2 RIJK def2-TZVP def2-TZVP/C def2-TZVP/JK TIGHTSCF
|  2> % maxcore 2000
|  3> % mp2 density relaxed end
|  4> *xyz 0 1
|  5>  C        0.0208912130     1.5567741754     0.1695041800
|  6>  C        0.0015585301     0.0358731065    -0.0714739227
|  7>  C       -1.3896128873    -0.5331799787    -0.1097215183
|  8>  C       -2.0254217887    -0.9785292838    -1.2356996903
|  9>  C       -3.3521347874    -1.4591963675    -1.0802690940
| 10>  N       -4.0211177012    -1.5153090141     0.0397587199
| 11>  C       -3.4109881490    -1.0735951438     1.2030914210
| 12>  O       -3.9151292923    -1.0706365450     2.3039495528
| 13>  N       -2.0806022686    -0.5923492913     1.0552420455
| 14>  H        1.0506967497     1.9228146642     0.1930264911
| 15>  H       -0.5133009976     2.0834582875    -0.6261736786
| 16>  H       -0.4511209987     1.8205314611     1.1207364393
| 17>  H        0.4954110096    -0.1970625830    -1.0184904823
| 18>  H        0.5725867895    -0.4693893490     0.7178057860
| 19>  H       -1.5370636110    -0.9648534434    -2.1999218330
| 20>  H       -3.8778802155    -1.8206868817    -1.9654074540
| 21>  H       -1.6571330147    -0.2832641833     1.9200903575
| 22> *
| 23>
| 24>                          ****END OF INPUT****

CARTESIAN COORDINATES (ANGSTROEM)
---------------------------------
  C      0.020891    1.556774    0.169504
  C      0.001559    0.035873   -0.071474
  C     -1.389613   -0.533180   -0.109722
  C     -2.025422   -0.978529   -1.235700
  C     -3.352135   -1.459196   -1.080269
  N     -4.021118   -1.515309    0.039759
  C     -3.410988   -1.073595    1.203091
  O     -3.915129   -1.070637    2.303950
  N     -2.080602   -0.592349    1.055242
  H      1.050697    1.922815    0.193026
  H     -0.513301    2.083458   -0.626174
  H     -0.451121    1.820531    1.120736
  H      0.495411   -0.197063   -1.018490
  H      0.572587   -0.469389    0.717806
  H     -1.537064   -0.964853   -2.199922
  H     -3.877880   -1.820687   -1.965407
  H     -1.657133   -0.283264    1.920090

 Total Charge           Charge          ....    0
 Multiplicity           Mult            ....    1
 Number of Electrons    NEL             ....   66
 Basis Dimension        Dim             ....  327

ORBITAL ENERGIES
----------------

  NO   OCC          E(Eh)            E(eV)
   0   2.0000     -20.510361      -558.1153
   1   2.0000     -15.627249      -425.2391
   2   2.0000     -15.556836      -423.3230
   3   2.0000     -11.374425      -309.5139
   4   2.0000     -11.334692      -308.4327
   5   2.0000     -11.310439      -307.7727
   6   2.0000     -11.272787      -306.7481
   7   2.0000     -11.252124      -306.1859
   8   2.0000     -11.238088      -305.8039
   9   2.0000      -1.395634       -37.9771
  10   2.0000      -1.295810       -35.2608
  11   2.0000      -1.220972       -33.2243
  12   2.0000      -1.101808       -29.9817
  13   2.0000      -1.043527       -28.3958
  14   2.0000      -0.929406       -25.2904
  15   2.0000      -0.892512       -24.2865
  16   2.0000      -0.847486       -23.0613
  17   2.0000      -0.750206       -20.4142
  18   2.0000      -0.730224       -19.8704
  19   2.0000      -0.678978       -18.4759
  20   2.0000      -0.640966       -17.4416
  21   2.0000      -0.639521       -17.4023
  22   2.0000      -0.623859       -16.9761
  23   2.0000      -0.614887       -16.7319
  24   2.0000      -0.579423       -15.7669
  25   2.0000      -0.560704       -15.2575
  26   2.0000      -0.543359       -14.7855
  27   2.0000      -0.529389       -14.4054
  28   2.0000      -0.483790       -13.1646
  29   2.0000      -0.462418       -12.5830
  30   2.0000      -0.453934       -12.3522
  31   2.0000      -0.416904       -11.3445
  32   2.0000      -0.337463        -9.1828
  33   0.0000       0.075930         2.0662
  34   0.0000       0.114097         3.1047
  35   0.0000       0.147964         4.0263
  36   0.0000       0.153178         4.1682
  37   0.0000       0.158071         4.3013

MULLIKEN ATOMIC CHARGES
-----------------------
   0 C :   -0.383845
   1 C :   -0.274229
   2 C :    0.210668
   3 C :   -0.212156
   4 C :   -0.029718
   5 N :   -0.223250
   6 C :    0.267412
   7 O :   -0.336278
   8 N :   -0.246743
   9 H :    0.143800
  10 H :    0.142380
  11 H :    0.129426
  12 H :    0.138684
  13 H :    0.142722
  14 H :    0.143111
  15 H :    0.136386
  16 H :    0.251630
Sum of atomic charges:    0.0000000

LOEWDIN ATOMIC CHARGES
----------------------
   0 C :   -0.301252
   1 C :   -0.243283
   2 C :   -0.198724
   3 C :   -0.170116
   4 C :   -0.197873
   5 N :    0.136550
   6 C :   -0.504324
   7 O :    0.082614
   8 N :    0.216082
   9 H :    0.126451
  10 H :    0.127684
  11 H :    0.122097
  12 H :    0.151427
  13 H :    0.149459
  14 H :    0.153034
  15 H :    0.143465
  16 H :    0.206710

  Mayer bond orders larger than 0.1
B(  0-C ,  1-C ) :   0.9141 B(  0-C ,  9-H ) :   0.9339 B(  0-C , 10-H ) :   0.9336
B(  0-C , 11-H ) :   0.9357 B(  1-C ,  2-C ) :   0.8938 B(  1-C , 12-H ) :   0.9425
B(  1-C , 13-H ) :   0.9294 B(  2-C ,  3-C ) :   1.4836 B(  2-C ,  8-N ) :   1.1824
B(  3-C ,  4-C ) :   1.1516 B(  3-C , 14-H ) :   0.9187 B(  4-C ,  5-N ) :   1.6026
B(  4-C , 15-H ) :   0.9439 B(  5-N ,  6-C ) :   1.1457 B(  6-C ,  7-O ) :   1.9874
B(  6-C ,  8-N ) :   0.9926 B(  8-N , 16-H ) :   0.8544

MP2 TOTAL ENERGY:     -417.364732879 Eh
FINAL SINGLE POINT ENERGY      -417.364732879248

DIPOLE MOMENT
-------------
                                X             Y             Z
Electronic contribution:     -8.85593      -5.68090       2.79598
Nuclear contribution   :     11.10332       6.42357      -3.93694
                        -----------------------------------------
Total Dipole Moment    :      2.24739       0.74267      -1.14096
                        -----------------------------------------
Magnitude (a.u.)       :      2.62757
Magnitude (Debye)      :      6.67876

                             ****ORCA TERMINATED NORMALLY****
TOTAL RUN TIME: 0 days 0 hours 16 minutes 50 seconds 7 msec
