                         Program Version 3.0.3 - RELEASE   -
|  1> ! RI-MP2 RIJK def2-TZVP def2-TZVP/C def2-TZVP/JK TIGHTSCF
|  2> % maxcore 2000
|  3> % mp2 density relaxed end
|  4> *xyz 0 1
|  5>  C       -0.4020016827     1.4861660687     0.1290596929
|  6>  C        0.1448645557     0.0588053167    -0.0571786899
|  7>  C        0.8906357180    -0.4663830223     1.1289163742
|  8>  C        2.2326117812    -0.7219638569     1.3134013287
|  9>  C        2.4280119580    -1.1933596680     2.6469663243
| 10>  C        3.7209422024    -1.5963682441     3.2877012997
| 11>  C        1.1826474605    -1.2117565090     3.2433465311
| 12>  N        0.7148054937    -1.5797737700     4.5297071465
| 13>  N        0.2660471039    -0.7688576603     2.3139720879
| 14>  H        0.4116265658     2.1890965307     0.3314011761
| 15>  H       -0.9336854825     1.8228519148    -0.7668790157
| 16>  H       -1.1006308582     1.5394962271     0.9708419520
| 17>  H       -0.6869961826    -0.6132522169    -0.3115529897
| 18>  H        0.8231833039     0.0387845265    -0.9163404665
| 19>  H        2.9995586952    -0.5850836482     0.5640013808
| 20>  H        4.4474221716    -0.7747791934     3.2999115517
| 21>  H        3.5622649130    -1.9082273647     4.3252423710
| 22>  H        4.1973555810    -2.4334187624     2.7628441821
| 23>  H        0.9365332392    -2.5448959913     4.7510060375
| 24>  H        1.1214370375    -1.0046976368     5.2604078302
| 25>  H       -0.7186337246    -0.7030055302     2.5083123349
| 26> *
| 27>
| 28>                          ****END OF INPUT****

CARTESIAN COORDINATES (ANGSTROEM)
---------------------------------
  C     -0.402002    1.486166    0.129060
  C      0.144865    0.058805   -0.057179
  C      0.890636   -0.466383    1.128916
  C      2.232612   -0.721964    1.313401
  C      2.428012   -1.193360    2.646966
  C      3.720942   -1.596368    3.287701
  C      1.182647   -1.211757    3.243347
  N      0.714805   -1.579774    4.529707
  N      0.266047   -0.768858    2.313972
  H      0.411627    2.189097    0.331401
  H     -0.933685    1.822852   -0.766879
  H     -1.100631    1.539496    0.970842
  H     -0.686996   -0.613252   -0.311553
  H      0.823183    0.038785   -0.916340
  H      2.999559   -0.585084    0.564001
  H      4.447422   -0.774779    3.299912
  H      3.562265   -1.908227    4.325242
  H      4.197356   -2.433419    2.762844
  H      0.936533   -2.544896    4.751006
  H      1.121437   -1.004698    5.260408
  H     -0.718634   -0.703006    2.508312

 Total Charge           Charge          ....    0
 Multiplicity           Mult            ....    1
 Number of Electrons    NEL             ....   68
 Basis Dimension        Dim             ....  351

ORBITAL ENERGIES
----------------

  NO   OCC          E(Eh)            E(eV)
   0   2.0000     -15.583200      -424.0404
   1   2.0000     -15.554158      -423.2502
   2   2.0000     -11.265841      -306.5591
   3   2.0000     -11.244436      -305.9767
   4   2.0000     -11.229758      -305.5772
   5   2.0000     -11.216255      -305.2098
   6   2.0000     -11.212877      -305.1179
   7   2.0000     -11.202302      -304.8301
   8   2.0000     -11.192161      -304.5542
   9   2.0000      -1.287585       -35.0370
  10   2.0000      -1.174738       -31.9662
  11   2.0000      -1.051175       -28.6039
  12   2.0000      -1.046921       -28.4882
  13   2.0000      -0.958369       -26.0786
  14   2.0000      -0.911263       -24.7967
  15   2.0000      -0.840801       -22.8794
  16   2.0000      -0.769571       -20.9411
  17   2.0000      -0.737685       -20.0734
  18   2.0000      -0.680241       -18.5103
  19   2.0000      -0.664145       -18.0723
  20   2.0000      -0.618985       -16.8434
  21   2.0000      -0.597182       -16.2502
  22   2.0000      -0.582890       -15.8612
  23   2.0000      -0.567403       -15.4398
  24   2.0000      -0.559409       -15.2223
  25   2.0000      -0.544817       -14.8252
  26   2.0000      -0.528944       -14.3933
  27   2.0000      -0.517749       -14.0887
  28   2.0000      -0.500387       -13.6162
  29   2.0000      -0.492615       -13.4047
  30   2.0000      -0.476697       -12.9716
  31   2.0000      -0.417047       -11.3484
  32   2.0000      -0.328514        -8.9393
  33   2.0000      -0.273330        -7.4377
  34   0.0000       0.127156         3.4601
  35   0.0000       0.138557         3.7703
  36   0.0000       0.167082         4.5465
  37   0.0000       0.178611         4.8603
  38   0.0000       0.182122         4.9558

MULLIKEN ATOMIC CHARGES
-----------------------
   0 C :   -0.368650
   1 C :   -0.270617
   2 C :    0.183187
   3 C :   -0.296221
   4 C :    0.071873
   5 C :   -0.439189
   6 C :    0.078638
   7 N :   -0.556897
   8 N :   -0.257980
   9 H :    0.132344
  10 H :    0.126567
  11 H :    0.110685
  12 H :    0.120838
  13 H :    0.127522
  14 H :    0.113624
  15 H :    0.139926
  16 H :    0.112022
  17 H :    0.140280
  18 H :    0.248312
  19 H :    0.247955
  20 H :    0.235781
Sum of atomic charges:    0.0000000

LOEWDIN ATOMIC CHARGES
----------------------
   0 C :   -0.313014
   1 C :   -0.264773
   2 C :   -0.234321
   3 C :   -0.156619
   4 C :   -0.207600
   5 C :   -0.281536
   6 C :   -0.318221
   7 N :   -0.126416
   8 N :    0.217974
   9 H :    0.123318
  10 H :    0.118711
  11 H :    0.116114
  12 H :    0.140799
  13 H :    0.148593
  14 H :    0.138640
  15 H :    0.128172
  16 H :    0.122560
  17 H :    0.128096
  18 H :    0.164037
  19 H :    0.163965
  20 H :    0.191521

  Mayer bond orders larger than 0.1
B(  0-C ,  1-C ) :   0.9145 B(  0-C ,  9-H ) :   0.9372 B(  0-C , 10-H ) :   0.9351
B(  0-C , 11-H ) :   0.9385 B(  1-C ,  2-C ) :   0.8999 B(  1-C , 12-H ) :   0.9388
B(  1-C , 13-H ) :   0.9504 B(  2-C ,  3-C ) :   1.4523 B(  2-C ,  8-N ) :   1.0989
B(  3-C ,  4-C ) :   1.2238 B(  3-C , 14-H ) :   0.9422 B(  4-C ,  5-C ) :   0.8506
B(  4-C ,  6-C ) :   1.4650 B(  5-C , 15-H ) :   0.9392 B(  5-C , 16-H ) :   0.9588
B(  5-C , 17-H ) :   0.9384 B(  6-C ,  7-N ) :   1.0573 B(  6-C ,  8-N ) :   1.1471
B(  7-N , 18-H ) :   0.8915 B(  7-N , 19-H ) :   0.8913 B(  8-N , 20-H ) :   0.8661

MP2 TOTAL ENERGY:     -382.637518816 Eh
FINAL SINGLE POINT ENERGY      -382.637518816343

DIPOLE MOMENT
-------------
                                X             Y             Z
Electronic contribution:     -0.60698      -2.76228       2.34537
Nuclear contribution   :      0.39497       2.73069      -2.11714
                        -----------------------------------------
Total Dipole Moment    :     -0.21201      -0.03159       0.22823
                        -----------------------------------------
Magnitude (a.u.)       :      0.31311
Magnitude (Debye)      :      0.79586

                             ****ORCA TERMINATED NORMALLY****
TOTAL RUN TIME: 0 days 0 hours 18 minutes 4 seconds 956 msec
