                         Program Version 3.0.3 - RELEASE   -
|  1> ! RI-MP2 RIJK def2-TZVP def2-TZVP/C def2-TZVP/JK TIGHTSCF
|  2> % maxcore 2000
|  3> % mp2 density relaxed end
|  4> *xyz 0 1
|  5>  O        0.0134081682     0.0009307328     0.0141270748
|  6>  C       -0.0245399187     1.1968484061     0.0087110414
|  7>  C       -1.1951401581     2.1861271509     0.0522637708
|  8>  C       -0.7887928121     3.0182767910     1.2808991738
|  9>  C       -0.3115635593     4.1418288434     0.4491751559
| 10>  C       -0.6683082397     3.3943511765    -0.8510639389
| 11>  C        0.7166199421     2.9398888580    -1.3553337010
| 12>  C        1.1031739191     2.2509833494    -0.0282036117
| 13>  N        0.6843662278     3.2203896902     1.0435999583
| 14>  H       -2.2073973672     1.8127496506    -0.0634000402
| 15>  H       -1.1584526204     2.9596841950     2.2972166892
| 16>  H       -0.2367163695     5.2056179319     0.6404289872
| 17>  H       -1.3697002290     3.8360261284    -1.5547296806
| 18>  H        0.6833470230     2.2378380218    -2.1954910878
| 19>  H        1.3657277419     3.7816089146    -1.6130649408
| 20>  H        2.1205017719     1.8953261994     0.1092175197
| 21> *
| 22>
| 23>                          ****END OF INPUT****

CARTESIAN COORDINATES (ANGSTROEM)
---------------------------------
  O      0.013408    0.000931    0.014127
  C     -0.024540    1.196848    0.008711
  C     -1.195140    2.186127    0.052264
  C     -0.788793    3.018277    1.280899
  C     -0.311564    4.141829    0.449175
  C     -0.668308    3.394351   -0.851064
  C      0.716620    2.939889   -1.355334
  C      1.103174    2.250983   -0.028204
  N      0.684366    3.220390    1.043600
  H     -2.207397    1.812750   -0.063400
  H     -1.158453    2.959684    2.297217
  H     -0.236716    5.205618    0.640429
  H     -1.369700    3.836026   -1.554730
  H      0.683347    2.237838   -2.195491
  H      1.365728    3.781609   -1.613065
  H      2.120502    1.895326    0.109218

 Total Charge           Charge          ....    0
 Multiplicity           Mult            ....    1
 Number of Electrons    NEL             ....   64
 Basis Dimension        Dim             ....  321

ORBITAL ENERGIES
----------------

  NO   OCC          E(Eh)            E(eV)
   0   2.0000     -20.557007      -559.3846
   1   2.0000     -15.577961      -423.8979
   2   2.0000     -11.333679      -308.4051
   3   2.0000     -11.279770      -306.9382
   4   2.0000     -11.274331      -306.7901
   5   2.0000     -11.271611      -306.7161
   6   2.0000     -11.262196      -306.4599
   7   2.0000     -11.255959      -306.2902
   8   2.0000     -11.246177      -306.0240
   9   2.0000      -1.401862       -38.1466
  10   2.0000      -1.328465       -36.1494
  11   2.0000      -1.092177       -29.7197
  12   2.0000      -1.046208       -28.4688
  13   2.0000      -0.986859       -26.8538
  14   2.0000      -0.845973       -23.0201
  15   2.0000      -0.805030       -21.9060
  16   2.0000      -0.772920       -21.0322
  17   2.0000      -0.743363       -20.2279
  18   2.0000      -0.722365       -19.6565
  19   2.0000      -0.662564       -18.0293
  20   2.0000      -0.659640       -17.9497
  21   2.0000      -0.620265       -16.8783
  22   2.0000      -0.593017       -16.1368
  23   2.0000      -0.559566       -15.2266
  24   2.0000      -0.527016       -14.3408
  25   2.0000      -0.517208       -14.0739
  26   2.0000      -0.493213       -13.4210
  27   2.0000      -0.478413       -13.0183
  28   2.0000      -0.469464       -12.7748
  29   2.0000      -0.445708       -12.1283
  30   2.0000      -0.402681       -10.9575
  31   2.0000      -0.384893       -10.4735
  32   0.0000       0.126380         3.4390
  33   0.0000       0.149468         4.0672
  34   0.0000       0.165573         4.5055
  35   0.0000       0.168933         4.5969
  36   0.0000       0.177871         4.8401

MULLIKEN ATOMIC CHARGES
-----------------------
   0 O :   -0.235995
   1 C :    0.029112
   2 C :   -0.050127
   3 C :   -0.125016
   4 C :   -0.131897
   5 C :   -0.059436
   6 C :   -0.318572
   7 C :    0.103248
   8 N :   -0.223855
   9 H :    0.153874
  10 H :    0.147712
  11 H :    0.145014
  12 H :    0.148234
  13 H :    0.135904
  14 H :    0.134496
  15 H :    0.147305
Sum of atomic charges:    0.0000000

LOEWDIN ATOMIC CHARGES
----------------------
   0 O :    0.174045
   1 C :   -0.275791
   2 C :   -0.132490
   3 C :   -0.166533
   4 C :   -0.187310
   5 C :   -0.154962
   6 C :   -0.201615
   7 C :   -0.211594
   8 N :    0.161110
   9 H :    0.148157
  10 H :    0.134481
  11 H :    0.133268
  12 H :    0.144325
  13 H :    0.145523
  14 H :    0.142816
  15 H :    0.146569

  Mayer bond orders larger than 0.1
B(  0-O ,  1-C ) :   2.0788 B(  1-C ,  2-C ) :   0.9091 B(  1-C ,  7-C ) :   0.8407
B(  2-C ,  3-C ) :   0.8591 B(  2-C ,  5-C ) :   0.8933 B(  2-C ,  7-C ) :  -0.1272
B(  2-C ,  9-H ) :   0.8965 B(  3-C ,  4-C ) :   0.8671 B(  3-C ,  8-N ) :   0.9079
B(  3-C , 10-H ) :   0.9175 B(  4-C ,  5-C ) :   0.8817 B(  4-C ,  8-N ) :   0.9175
B(  4-C , 11-H ) :   0.9126 B(  5-C ,  6-C ) :   0.9357 B(  5-C , 12-H ) :   0.8991
B(  6-C ,  7-C ) :   0.9097 B(  6-C , 13-H ) :   0.9199 B(  6-C , 14-H ) :   0.9113
B(  7-C ,  8-N ) :   0.9101 B(  7-C , 15-H ) :   0.8976

MP2 TOTAL ENERGY:     -400.033859641 Eh
FINAL SINGLE POINT ENERGY      -400.033859641124

DIPOLE MOMENT
-------------
                                X             Y             Z
Electronic contribution:     -0.00844      -3.27294       2.07478
Nuclear contribution   :     -0.47480       4.26460      -2.61378
                        -----------------------------------------
Total Dipole Moment    :     -0.48323       0.99166      -0.53900
                        -----------------------------------------
Magnitude (a.u.)       :      1.22777
Magnitude (Debye)      :      3.12075

                             ****ORCA TERMINATED NORMALLY****
TOTAL RUN TIME: 0 days 0 hours 17 minutes 44 seconds 669 msec
