                         Program Version 3.0.3 - RELEASE   -
|  1> ! RI-MP2 RIJK def2-TZVP def2-TZVP/C def2-TZVP/JK TIGHTSCF
|  2> % maxcore 2000
|  3> % mp2 density relaxed end
|  4> *xyz 0 1
|  5>  O       -0.1569442271     1.4534981897    -0.0628204852
|  6>  C       -0.0027402219     0.0464349341     0.0116165158
|  7>  C       -1.3968640724    -0.5675300749    -0.0212625285
|  8>  C       -1.3625880202    -2.0904978888     0.0716381474
|  9>  N       -2.7119069593    -2.6318716333     0.0360183709
| 10>  C       -2.9328671061    -3.9745148416    -0.0116118315
| 11>  N       -1.9826983289    -4.8276381193    -0.1229125033
| 12>  C       -4.3400663646    -4.3453737476     0.0534687137
| 13>  N       -5.4453168279    -4.6804711554     0.1106839470
| 14>  H        0.7167892865     1.8546963696    -0.0493648059
| 15>  H        0.5924113984    -0.3384431160    -0.8322364230
| 16>  H        0.5142695842    -0.2525077769     0.9379720569
| 17>  H       -1.9757172402    -0.1502518844     0.8126740420
| 18>  H       -1.8970030022    -0.2590827308    -0.9462418040
| 19>  H       -0.8018503600    -2.5246205349    -0.7631873885
| 20>  H       -0.8485709843    -2.4158493339     0.9876650656
| 21>  H       -3.4768305768    -2.0339678936     0.3014636820
| 22>  H       -2.3465513473    -5.7748340920    -0.1841265914
| 23> *
| 24>
| 25>                          ****END OF INPUT****

CARTESIAN COORDINATES (ANGSTROEM)
---------------------------------
  O     -0.156944    1.453498   -0.062820
  C     -0.002740    0.046435    0.011617
  C     -1.396864   -0.567530   -0.021263
  C     -1.362588   -2.090498    0.071638
  N     -2.711907   -2.631872    0.036018
  C     -2.932867   -3.974515   -0.011612
  N     -1.982698   -4.827638   -0.122913
  C     -4.340066   -4.345374    0.053469
  N     -5.445317   -4.680471    0.110684
  H      0.716789    1.854696   -0.049365
  H      0.592411   -0.338443   -0.832236
  H      0.514270   -0.252508    0.937972
  H     -1.975717   -0.150252    0.812674
  H     -1.897003   -0.259083   -0.946242
  H     -0.801850   -2.524621   -0.763187
  H     -0.848571   -2.415849    0.987665
  H     -3.476831   -2.033968    0.301464
  H     -2.346551   -5.774834   -0.184127

 Total Charge           Charge          ....    0
 Multiplicity           Mult            ....    1
 Number of Electrons    NEL             ....   68
 Basis Dimension        Dim             ....  333

ORBITAL ENERGIES
----------------

  NO   OCC          E(Eh)            E(eV)
   0   2.0000     -20.567357      -559.6662
   1   2.0000     -15.603988      -424.6061
   2   2.0000     -15.602519      -424.5661
   3   2.0000     -15.559227      -423.3881
   4   2.0000     -11.370758      -309.4141
   5   2.0000     -11.297921      -307.4321
   6   2.0000     -11.290641      -307.2340
   7   2.0000     -11.277325      -306.8716
   8   2.0000     -11.239862      -305.8522
   9   2.0000      -1.372287       -37.3418
  10   2.0000      -1.312041       -35.7025
  11   2.0000      -1.239845       -33.7379
  12   2.0000      -1.189240       -32.3609
  13   2.0000      -1.066274       -29.0148
  14   2.0000      -0.958649       -26.0862
  15   2.0000      -0.872467       -23.7410
  16   2.0000      -0.835358       -22.7312
  17   2.0000      -0.786878       -21.4120
  18   2.0000      -0.708237       -19.2721
  19   2.0000      -0.683847       -18.6084
  20   2.0000      -0.676347       -18.4043
  21   2.0000      -0.641600       -17.4588
  22   2.0000      -0.624095       -16.9825
  23   2.0000      -0.590309       -16.0631
  24   2.0000      -0.576572       -15.6893
  25   2.0000      -0.567581       -15.4447
  26   2.0000      -0.529109       -14.3978
  27   2.0000      -0.515578       -14.0296
  28   2.0000      -0.510931       -13.9031
  29   2.0000      -0.496477       -13.5098
  30   2.0000      -0.467867       -12.7313
  31   2.0000      -0.457391       -12.4462
  32   2.0000      -0.455375       -12.3914
  33   2.0000      -0.380162       -10.3447
  34   0.0000       0.096947         2.6381
  35   0.0000       0.120166         3.2699
  36   0.0000       0.126122         3.4319
  37   0.0000       0.146805         3.9948
  38   0.0000       0.152276         4.1436

MULLIKEN ATOMIC CHARGES
-----------------------
   0 O :   -0.463353
   1 C :   -0.078211
   2 C :   -0.181353
   3 C :   -0.125074
   4 N :   -0.323865
   5 C :    0.310622
   6 N :   -0.408681
   7 C :   -0.199771
   8 N :   -0.046488
   9 H :    0.319151
  10 H :    0.100012
  11 H :    0.098267
  12 H :    0.117778
  13 H :    0.132277
  14 H :    0.140890
  15 H :    0.124823
  16 H :    0.252709
  17 H :    0.230267
Sum of atomic charges:    0.0000000

LOEWDIN ATOMIC CHARGES
----------------------
   0 O :   -0.047459
   1 C :   -0.350029
   2 C :   -0.272594
   3 C :   -0.269338
   4 N :    0.115575
   5 C :   -0.397732
   6 N :   -0.049392
   7 C :   -0.150322
   8 N :    0.083745
   9 H :    0.174379
  10 H :    0.117284
  11 H :    0.116584
  12 H :    0.140787
  13 H :    0.143613
  14 H :    0.143315
  15 H :    0.135537
  16 H :    0.195253
  17 H :    0.170795

  Mayer bond orders larger than 0.1
B(  0-O ,  1-C ) :   1.0173 B(  0-O ,  9-H ) :   0.8471 B(  1-C ,  2-C ) :   0.9461
B(  1-C , 10-H ) :   0.9314 B(  1-C , 11-H ) :   0.9290 B(  2-C ,  3-C ) :   0.9049
B(  2-C , 12-H ) :   0.9196 B(  2-C , 13-H ) :   0.9175 B(  3-C ,  4-N ) :   0.8601
B(  3-C , 14-H ) :   0.9266 B(  3-C , 15-H ) :   0.9335 B(  4-N ,  5-C ) :   1.1645
B(  4-N , 16-H ) :   0.8717 B(  5-C ,  6-N ) :   1.8625 B(  5-C ,  7-C ) :   0.8806
B(  6-N , 17-H ) :   0.8633 B(  7-C ,  8-N ) :   2.8262

MP2 TOTAL ENERGY:     -434.553580166 Eh
FINAL SINGLE POINT ENERGY      -434.553580165873

DIPOLE MOMENT
-------------
                                X             Y             Z
Electronic contribution:     -8.10474      -7.28240      -0.04354
Nuclear contribution   :      9.31561       8.13014       0.19132
                        -----------------------------------------
Total Dipole Moment    :      1.21087       0.84773       0.14778
                        -----------------------------------------
Magnitude (a.u.)       :      1.48550
Magnitude (Debye)      :      3.77583

                             ****ORCA TERMINATED NORMALLY****
TOTAL RUN TIME: 0 days 0 hours 14 minutes 19 seconds 437 msec
