                         Program Version 3.0.3 - RELEASE   -
|  1> ! RI-MP2 RIJK def2-TZVP def2-TZVP/C def2-TZVP/JK TIGHTSCF
|  2> % maxcore 2000
|  3> % mp2 density relaxed end
|  4> *xyz 0 1
|  5>  C       -0.0224273170     1.4836854716    -0.1821640085
|  6>  C        0.0157875386    -0.0043292756     0.0592357294
|  7>  O        1.2943307553    -0.6514992730     0.0595994648
|  8>  C        0.5411726357    -0.6510897159     1.2742304830
|  9>  C        1.1130717733     0.1134450087     2.4473105563
| 10>  C        1.9619493683    -0.7875771395     3.3688818075
| 11>  N        2.9720069164    -1.5096900167     2.6012801705
| 12>  C        2.5221084277     0.0211041487     4.4764545382
| 13>  N        2.9980994461     0.6391116907     5.3302003811
| 14>  H        0.7358405871     2.0158105397     0.3953421268
| 15>  H        0.1497479400     1.6963186638    -1.2422957974
| 16>  H       -1.0068666218     1.8850906464     0.0821503414
| 17>  H       -0.7464739425    -0.5626934675    -0.4889403019
| 18>  H        0.1284266931    -1.6280612746     1.5349013127
| 19>  H        1.7343306368     0.9359191461     2.0818454202
| 20>  H        0.3065815094     0.5552468694     3.0436398755
| 21>  H        1.3004600487    -1.5347853461     3.8268092392
| 22>  H        3.5454375197    -0.8611644230     2.0702462175
| 23>  H        3.5896758851    -2.0273976133     3.2179466538
| 24> *
| 25>
| 26>                          ****END OF INPUT****

CARTESIAN COORDINATES (ANGSTROEM)
---------------------------------
  C     -0.022427    1.483685   -0.182164
  C      0.015788   -0.004329    0.059236
  O      1.294331   -0.651499    0.059599
  C      0.541173   -0.651090    1.274230
  C      1.113072    0.113445    2.447311
  C      1.961949   -0.787577    3.368882
  N      2.972007   -1.509690    2.601280
  C      2.522108    0.021104    4.476455
  N      2.998099    0.639112    5.330200
  H      0.735841    2.015811    0.395342
  H      0.149748    1.696319   -1.242296
  H     -1.006867    1.885091    0.082150
  H     -0.746474   -0.562693   -0.488940
  H      0.128427   -1.628061    1.534901
  H      1.734331    0.935919    2.081845
  H      0.306582    0.555247    3.043640
  H      1.300460   -1.534785    3.826809
  H      3.545438   -0.861164    2.070246
  H      3.589676   -2.027398    3.217947

 Total Charge           Charge          ....    0
 Multiplicity           Mult            ....    1
 Number of Electrons    NEL             ....   68
 Basis Dimension        Dim             ....  339

ORBITAL ENERGIES
----------------

  NO   OCC          E(Eh)            E(eV)
   0   2.0000     -20.569764      -559.7317
   1   2.0000     -15.574873      -423.8138
   2   2.0000     -15.569038      -423.6551
   3   2.0000     -11.320259      -308.0399
   4   2.0000     -11.296787      -307.4012
   5   2.0000     -11.294818      -307.3476
   6   2.0000     -11.273434      -306.7657
   7   2.0000     -11.258704      -306.3649
   8   2.0000     -11.234065      -305.6944
   9   2.0000      -1.415984       -38.5309
  10   2.0000      -1.238730       -33.7076
  11   2.0000      -1.204009       -32.7628
  12   2.0000      -1.060288       -28.8519
  13   2.0000      -1.018556       -27.7163
  14   2.0000      -0.943610       -25.6769
  15   2.0000      -0.868956       -23.6455
  16   2.0000      -0.794760       -21.6265
  17   2.0000      -0.730499       -19.8779
  18   2.0000      -0.706122       -19.2146
  19   2.0000      -0.697951       -18.9922
  20   2.0000      -0.633460       -17.2373
  21   2.0000      -0.631326       -17.1793
  22   2.0000      -0.596074       -16.2200
  23   2.0000      -0.582686       -15.8557
  24   2.0000      -0.565285       -15.3822
  25   2.0000      -0.560554       -15.2534
  26   2.0000      -0.554230       -15.0814
  27   2.0000      -0.521733       -14.1971
  28   2.0000      -0.506618       -13.7858
  29   2.0000      -0.479392       -13.0449
  30   2.0000      -0.466892       -12.7048
  31   2.0000      -0.449617       -12.2347
  32   2.0000      -0.430566       -11.7163
  33   2.0000      -0.426263       -11.5992
  34   0.0000       0.117261         3.1908
  35   0.0000       0.139336         3.7915
  36   0.0000       0.145392         3.9563
  37   0.0000       0.157606         4.2887
  38   0.0000       0.170529         4.6403

MULLIKEN ATOMIC CHARGES
-----------------------
   0 C :   -0.385338
   1 C :    0.055199
   2 O :   -0.333251
   3 C :    0.070782
   4 C :   -0.289343
   5 C :    0.123485
   6 N :   -0.512532
   7 C :   -0.209702
   8 N :   -0.057987
   9 H :    0.129876
  10 H :    0.145449
  11 H :    0.131727
  12 H :    0.109152
  13 H :    0.115579
  14 H :    0.146175
  15 H :    0.140826
  16 H :    0.136545
  17 H :    0.243278
  18 H :    0.240080
Sum of atomic charges:   -0.0000000

LOEWDIN ATOMIC CHARGES
----------------------
   0 C :   -0.294397
   1 C :   -0.291332
   2 O :    0.161906
   3 C :   -0.270781
   4 C :   -0.217738
   5 C :   -0.323683
   6 N :   -0.113882
   7 C :   -0.182605
   8 N :    0.058046
   9 H :    0.126131
  10 H :    0.131625
  11 H :    0.131385
  12 H :    0.137435
  13 H :    0.142380
  14 H :    0.152865
  15 H :    0.156237
  16 H :    0.169198
  17 H :    0.166136
  18 H :    0.161073

  Mayer bond orders larger than 0.1
B(  0-C ,  1-C ) :   0.8894 B(  0-C ,  9-H ) :   0.9407 B(  0-C , 10-H ) :   0.9370
B(  0-C , 11-H ) :   0.9251 B(  1-C ,  2-O ) :   0.8882 B(  1-C ,  3-C ) :   0.9716
B(  1-C , 12-H ) :   0.9203 B(  2-O ,  3-C ) :   0.9034 B(  3-C ,  4-C ) :   0.8918
B(  3-C , 13-H ) :   0.9011 B(  4-C ,  5-C ) :   0.9440 B(  4-C , 14-H ) :   0.9393
B(  4-C , 15-H ) :   0.9254 B(  5-C ,  6-N ) :   0.9638 B(  5-C ,  7-C ) :   0.9260
B(  5-C , 16-H ) :   0.9100 B(  6-N , 17-H ) :   0.8816 B(  6-N , 18-H ) :   0.8902
B(  7-C ,  8-N ) :   2.8788

MP2 TOTAL ENERGY:     -418.491345993 Eh
FINAL SINGLE POINT ENERGY      -418.491345992628

DIPOLE MOMENT
-------------
                                X             Y             Z
Electronic contribution:      3.93052      -2.12421       5.42523
Nuclear contribution   :     -4.81642       1.92450      -6.02833
                        -----------------------------------------
Total Dipole Moment    :     -0.88590      -0.19971      -0.60310
                        -----------------------------------------
Magnitude (a.u.)       :      1.09015
Magnitude (Debye)      :      2.77095

                             ****ORCA TERMINATED NORMALLY****
TOTAL RUN TIME: 0 days 0 hours 17 minutes 53 seconds 704 msec
