                         Program Version 3.0.3 - RELEASE   -
|  1> ! RI-MP2 RIJK def2-TZVP def2-TZVP/C def2-TZVP/JK TIGHTSCF
|  2> % maxcore 2000
|  3> % mp2 density relaxed end
|  4> *xyz 0 1
|  5>  C        0.1375672397     1.5099897550     0.1500391580
|  6>  C       -0.0902964075     0.0081959384    -0.0954750304
|  7>  C        0.6931506709    -0.5102440178    -1.2580050146
|  8>  N        0.1513810823    -0.8231534627    -2.4020114692
|  9>  O        1.1782565532    -1.2388155340    -3.2110650928
| 10>  N        2.3733348753    -1.1885264651    -2.5708809743
| 11>  C        2.1082470081    -0.7422821330    -1.3630870534
| 12>  C        3.0968432522    -0.5516707734    -0.3709559299
| 13>  C        3.9046311607    -0.3782663554     0.5029067003
| 14>  H        1.1919760848     1.7215597183     0.3490371043
| 15>  H       -0.1709737026     2.0979774899    -0.7189157558
| 16>  H       -0.4443551287     1.8434825240     1.0136072227
| 17>  H        0.1958769809    -0.5568341333     0.7987822288
| 18>  H       -1.1490165710    -0.1900234780    -0.2821208716
| 19>  H        4.6301417717    -0.2300536528     1.2650442381
| 20> *
| 21>
| 22>                          ****END OF INPUT****

CARTESIAN COORDINATES (ANGSTROEM)
---------------------------------
  C      0.137567    1.509990    0.150039
  C     -0.090296    0.008196   -0.095475
  C      0.693151   -0.510244   -1.258005
  N      0.151381   -0.823153   -2.402011
  O      1.178257   -1.238816   -3.211065
  N      2.373335   -1.188526   -2.570881
  C      2.108247   -0.742282   -1.363087
  C      3.096843   -0.551671   -0.370956
  C      3.904631   -0.378266    0.502907
  H      1.191976    1.721560    0.349037
  H     -0.170974    2.097977   -0.718916
  H     -0.444355    1.843483    1.013607
  H      0.195877   -0.556834    0.798782
  H     -1.149017   -0.190023   -0.282121
  H      4.630142   -0.230054    1.265044

 Total Charge           Charge          ....    0
 Multiplicity           Mult            ....    1
 Number of Electrons    NEL             ....   64
 Basis Dimension        Dim             ....  315

ORBITAL ENERGIES
----------------

  NO   OCC          E(Eh)            E(eV)
   0   2.0000     -20.684623      -562.8572
   1   2.0000     -15.668928      -426.3732
   2   2.0000     -15.653332      -425.9488
   3   2.0000     -11.320774      -308.0539
   4   2.0000     -11.305466      -307.6374
   5   2.0000     -11.269921      -306.6701
   6   2.0000     -11.265321      -306.5450
   7   2.0000     -11.260366      -306.4101
   8   2.0000     -11.237923      -305.7994
   9   2.0000      -1.550407       -42.1887
  10   2.0000      -1.223858       -33.3029
  11   2.0000      -1.200020       -32.6542
  12   2.0000      -1.063330       -28.9347
  13   2.0000      -1.054891       -28.7050
  14   2.0000      -0.906998       -24.6807
  15   2.0000      -0.904764       -24.6199
  16   2.0000      -0.825287       -22.4572
  17   2.0000      -0.772269       -21.0145
  18   2.0000      -0.725636       -19.7456
  19   2.0000      -0.697330       -18.9753
  20   2.0000      -0.662144       -18.0179
  21   2.0000      -0.631839       -17.1932
  22   2.0000      -0.605837       -16.4857
  23   2.0000      -0.554560       -15.0903
  24   2.0000      -0.547248       -14.8914
  25   2.0000      -0.526351       -14.3228
  26   2.0000      -0.516101       -14.0438
  27   2.0000      -0.498620       -13.5681
  28   2.0000      -0.494257       -13.4494
  29   2.0000      -0.428907       -11.6712
  30   2.0000      -0.425629       -11.5820
  31   2.0000      -0.387148       -10.5348
  32   0.0000       0.070839         1.9276
  33   0.0000       0.123206         3.3526
  34   0.0000       0.144336         3.9276
  35   0.0000       0.148695         4.0462
  36   0.0000       0.152689         4.1549

MULLIKEN ATOMIC CHARGES
-----------------------
   0 C :   -0.401942
   1 C :   -0.231556
   2 C :    0.030645
   3 N :   -0.081531
   4 O :   -0.005987
   5 N :   -0.085159
   6 C :   -0.122864
   7 C :    0.075781
   8 C :   -0.094072
   9 H :    0.143378
  10 H :    0.142072
  11 H :    0.139419
  12 H :    0.137342
  13 H :    0.148490
  14 H :    0.205984
Sum of atomic charges:   -0.0000000

LOEWDIN ATOMIC CHARGES
----------------------
   0 C :   -0.299262
   1 C :   -0.243612
   2 C :   -0.250673
   3 N :    0.062483
   4 O :    0.213869
   5 N :    0.065508
   6 C :   -0.259841
   7 C :   -0.065419
   8 C :   -0.041610
   9 H :    0.126269
  10 H :    0.126894
  11 H :    0.125236
  12 H :    0.153465
  13 H :    0.153322
  14 H :    0.133373

  Mayer bond orders larger than 0.1
B(  0-C ,  1-C ) :   0.9101 B(  0-C ,  9-H ) :   0.9343 B(  0-C , 10-H ) :   0.9347
B(  0-C , 11-H ) :   0.9347 B(  1-C ,  2-C ) :   0.8895 B(  1-C , 12-H ) :   0.9315
B(  1-C , 13-H ) :   0.9390 B(  2-C ,  3-N ) :   1.6225 B(  2-C ,  6-C ) :   1.2046
B(  3-N ,  4-O ) :   0.9360 B(  3-N ,  5-N ) :   0.1213 B(  4-O ,  5-N ) :   0.9621
B(  5-N ,  6-C ) :   1.5433 B(  6-C ,  7-C ) :   1.1991 B(  6-C ,  8-C ) :  -0.1659
B(  7-C ,  8-C ) :   2.6123 B(  8-C , 14-H ) :   0.8678

MP2 TOTAL ENERGY:     -416.021814993 Eh
FINAL SINGLE POINT ENERGY      -416.021814992685

DIPOLE MOMENT
-------------
                                X             Y             Z
Electronic contribution:      4.15979      -6.17816      -7.57601
Nuclear contribution   :     -4.16496       6.74015       9.04542
                        -----------------------------------------
Total Dipole Moment    :     -0.00517       0.56198       1.46941
                        -----------------------------------------
Magnitude (a.u.)       :      1.57322
Magnitude (Debye)      :      3.99881

                             ****ORCA TERMINATED NORMALLY****
TOTAL RUN TIME: 0 days 0 hours 17 minutes 2 seconds 260 msec
