                         Program Version 3.0.3 - RELEASE   -
|  1> ! RI-MP2 RIJK def2-TZVP def2-TZVP/C def2-TZVP/JK TIGHTSCF
|  2> % maxcore 2000
|  3> % mp2 density relaxed end
|  4> *xyz 0 1
|  5>  O        0.0186036716    -0.0683441406     0.0967888185
|  6>  C        0.0088684732     1.1485699749     0.0718938906
|  7>  N       -1.1496329929     1.8653628654    -0.0178957482
|  8>  C       -1.3114391642     3.3145642023     0.0099518109
|  9>  C       -0.0208909264     4.0189527305    -0.4053815985
| 10>  C        1.1565974210     3.4492524205     0.3909320599
| 11>  C        1.2910967172     1.9703995192     0.1004078988
| 12>  C        2.5392606369     1.2376389422     0.3428305522
| 13>  O        2.1767323595     1.6263532738    -0.9814752988
| 14>  H       -1.9803103433     1.2907631471    -0.0034960079
| 15>  H       -2.1312003704     3.5861274742    -0.6639017334
| 16>  H       -1.6023667278     3.6460632891     1.0188181347
| 17>  H        0.1572480646     3.8659537525    -1.4757942248
| 18>  H       -0.1294293142     5.0945885373    -0.2384355476
| 19>  H        2.0953003832     3.9471579681     0.1323972485
| 20>  H        0.9853236980     3.6005849183     1.4654744894
| 21>  H        3.3851159140     1.7737284190     0.7724096085
| 22>  H        2.4812072701     0.1710749862     0.5416496973
| 23> *
| 24>
| 25>                          ****END OF INPUT****

CARTESIAN COORDINATES (ANGSTROEM)
---------------------------------
  O      0.018604   -0.068344    0.096789
  C      0.008868    1.148570    0.071894
  N     -1.149633    1.865363   -0.017896
  C     -1.311439    3.314564    0.009952
  C     -0.020891    4.018953   -0.405382
  C      1.156597    3.449252    0.390932
  C      1.291097    1.970400    0.100408
  C      2.539261    1.237639    0.342831
  O      2.176732    1.626353   -0.981475
  H     -1.980310    1.290763   -0.003496
  H     -2.131200    3.586127   -0.663902
  H     -1.602367    3.646063    1.018818
  H      0.157248    3.865954   -1.475794
  H     -0.129429    5.094589   -0.238436
  H      2.095300    3.947158    0.132397
  H      0.985324    3.600585    1.465474
  H      3.385116    1.773728    0.772410
  H      2.481207    0.171075    0.541650

 Total Charge           Charge          ....    0
 Multiplicity           Mult            ....    1
 Number of Electrons    NEL             ....   68
 Basis Dimension        Dim             ....  333

ORBITAL ENERGIES
----------------

  NO   OCC          E(Eh)            E(eV)
   0   2.0000     -20.575772      -559.8952
   1   2.0000     -20.515382      -558.2519
   2   2.0000     -15.588207      -424.1767
   3   2.0000     -11.352434      -308.9154
   4   2.0000     -11.302110      -307.5461
   5   2.0000     -11.285447      -307.0926
   6   2.0000     -11.283766      -307.0469
   7   2.0000     -11.246171      -306.0239
   8   2.0000     -11.244641      -305.9822
   9   2.0000      -1.422841       -38.7175
  10   2.0000      -1.376268       -37.4502
  11   2.0000      -1.241042       -33.7705
  12   2.0000      -1.083543       -29.4847
  13   2.0000      -1.005584       -27.3633
  14   2.0000      -0.921808       -25.0837
  15   2.0000      -0.878678       -23.9100
  16   2.0000      -0.851796       -23.1786
  17   2.0000      -0.749569       -20.3968
  18   2.0000      -0.706229       -19.2175
  19   2.0000      -0.698760       -19.0142
  20   2.0000      -0.659691       -17.9511
  21   2.0000      -0.635714       -17.2986
  22   2.0000      -0.619725       -16.8636
  23   2.0000      -0.603143       -16.4123
  24   2.0000      -0.591062       -16.0836
  25   2.0000      -0.578548       -15.7431
  26   2.0000      -0.544194       -14.8083
  27   2.0000      -0.511353       -13.9146
  28   2.0000      -0.508117       -13.8266
  29   2.0000      -0.505475       -13.7547
  30   2.0000      -0.467015       -12.7081
  31   2.0000      -0.438309       -11.9270
  32   2.0000      -0.414371       -11.2756
  33   2.0000      -0.392134       -10.6705
  34   0.0000       0.122339         3.3290
  35   0.0000       0.148645         4.0448
  36   0.0000       0.158015         4.2998
  37   0.0000       0.165024         4.4905
  38   0.0000       0.169437         4.6106

MULLIKEN ATOMIC CHARGES
-----------------------
   0 O :   -0.353516
   1 C :    0.175123
   2 N :   -0.293367
   3 C :   -0.120907
   4 C :   -0.245082
   5 C :   -0.210218
   6 C :    0.174559
   7 C :   -0.084232
   8 O :   -0.335586
   9 H :    0.240670
  10 H :    0.135383
  11 H :    0.118807
  12 H :    0.137106
  13 H :    0.134122
  14 H :    0.139175
  15 H :    0.121955
  16 H :    0.115479
  17 H :    0.150528
Sum of atomic charges:    0.0000000

LOEWDIN ATOMIC CHARGES
----------------------
   0 O :    0.090308
   1 C :   -0.419692
   2 N :    0.123114
   3 C :   -0.277661
   4 C :   -0.255109
   5 C :   -0.219957
   6 C :   -0.287388
   7 C :   -0.230577
   8 O :    0.176036
   9 H :    0.191502
  10 H :    0.135474
  11 H :    0.130467
  12 H :    0.148026
  13 H :    0.142325
  14 H :    0.150950
  15 H :    0.148660
  16 H :    0.121346
  17 H :    0.132177

  Mayer bond orders larger than 0.1
B(  0-O ,  1-C ) :   1.9856 B(  1-C ,  2-N ) :   1.2123 B(  1-C ,  6-C ) :   0.8958
B(  2-N ,  3-C ) :   0.8720 B(  2-N ,  9-H ) :   0.8581 B(  3-C ,  4-C ) :   0.9517
B(  3-C , 10-H ) :   0.9291 B(  3-C , 11-H ) :   0.9291 B(  4-C ,  5-C ) :   0.9138
B(  4-C , 12-H ) :   0.9298 B(  4-C , 13-H ) :   0.9303 B(  5-C ,  6-C ) :   0.8938
B(  5-C , 14-H ) :   0.9235 B(  5-C , 15-H ) :   0.9296 B(  6-C ,  7-C ) :   0.9578
B(  6-C ,  8-O ) :   0.8112 B(  7-C ,  8-O ) :   0.9093 B(  7-C , 16-H ) :   0.9157
B(  7-C , 17-H ) :   0.8976

MP2 TOTAL ENERGY:     -438.390461170 Eh
FINAL SINGLE POINT ENERGY      -438.390461170447

DIPOLE MOMENT
-------------
                                X             Y             Z
Electronic contribution:      0.77039      -6.43167      -1.24340
Nuclear contribution   :     -1.33650       7.99750       1.88763
                        -----------------------------------------
Total Dipole Moment    :     -0.56611       1.56583       0.64423
                        -----------------------------------------
Magnitude (a.u.)       :      1.78531
Magnitude (Debye)      :      4.53789

                             ****ORCA TERMINATED NORMALLY****
TOTAL RUN TIME: 0 days 0 hours 16 minutes 48 seconds 782 msec
