                         Program Version 3.0.3 - RELEASE   -
|  1> ! RI-MP2 RIJK def2-TZVP def2-TZVP/C def2-TZVP/JK TIGHTSCF
|  2> % maxcore 2000
|  3> % mp2 density relaxed end
|  4> *xyz 0 1
|  5>  C        0.0781696188     1.5297173604    -0.1665686408
|  6>  C        0.0583533541     0.0067980136     0.0077058534
|  7>  C       -1.3540481773    -0.5614061682     0.0706511888
|  8>  C       -2.2446371659    -0.5489141176    -1.2152661101
|  9>  C       -2.7001130054    -2.0099869208    -0.8994008675
| 10>  O       -4.0443756131    -2.1833746167    -0.5469019089
| 11>  C       -1.9918202213    -3.1093421330    -1.7231629044
| 12>  C       -0.7809551151    -3.0223440092    -0.7431179967
| 13>  C       -1.5960295347    -2.0879374092     0.2051381109
| 14>  H        1.1021099279     1.9133276293    -0.2138874441
| 15>  H       -0.4319839017     1.8298541118    -1.0885215826
| 16>  H       -0.4275631462     2.0294639282     0.6671589387
| 17>  H        0.6116979594    -0.4564542586    -0.8186914939
| 18>  H        0.5966463318    -0.2651716079     0.9257166268
| 19>  H       -1.8986450582    -0.0598446590     0.8795833959
| 20>  H       -3.0581790274     0.1806181867    -1.2150077776
| 21>  H       -1.6838480627    -0.4510871281    -2.1510140828
| 22>  H       -4.5866312662    -1.9663846176    -1.3138257104
| 23>  H       -2.5249703357    -4.0595056940    -1.6303266682
| 24>  H       -1.8040727583    -2.9069040253    -2.7824759915
| 25>  H       -0.4920830946    -3.9750440635    -0.2953729897
| 26>  H        0.1158523752    -2.5686943981    -1.1706782206
| 27>  H       -1.7969273034    -2.4852798133     1.2007743755
| 28> *
| 29>
| 30>                          ****END OF INPUT****

CARTESIAN COORDINATES (ANGSTROEM)
---------------------------------
  C      0.078170    1.529717   -0.166569
  C      0.058353    0.006798    0.007706
  C     -1.354048   -0.561406    0.070651
  C     -2.244637   -0.548914   -1.215266
  C     -2.700113   -2.009987   -0.899401
  O     -4.044376   -2.183375   -0.546902
  C     -1.991820   -3.109342   -1.723163
  C     -0.780955   -3.022344   -0.743118
  C     -1.596030   -2.087937    0.205138
  H      1.102110    1.913328   -0.213887
  H     -0.431984    1.829854   -1.088522
  H     -0.427563    2.029464    0.667159
  H      0.611698   -0.456454   -0.818691
  H      0.596646   -0.265172    0.925717
  H     -1.898645   -0.059845    0.879583
  H     -3.058179    0.180618   -1.215008
  H     -1.683848   -0.451087   -2.151014
  H     -4.586631   -1.966385   -1.313826
  H     -2.524970   -4.059506   -1.630327
  H     -1.804073   -2.906904   -2.782476
  H     -0.492083   -3.975044   -0.295373
  H      0.115852   -2.568694   -1.170678
  H     -1.796927   -2.485280    1.200774

 Total Charge           Charge          ....    0
 Multiplicity           Mult            ....    1
 Number of Electrons    NEL             ....   70
 Basis Dimension        Dim             ....  363

ORBITAL ENERGIES
----------------

  NO   OCC          E(Eh)            E(eV)
   0   2.0000     -20.554319      -559.3115
   1   2.0000     -11.276232      -306.8419
   2   2.0000     -11.222653      -305.3839
   3   2.0000     -11.219058      -305.2861
   4   2.0000     -11.216513      -305.2168
   5   2.0000     -11.216435      -305.2147
   6   2.0000     -11.216319      -305.2115
   7   2.0000     -11.215239      -305.1822
   8   2.0000     -11.211599      -305.0831
   9   2.0000      -1.363645       -37.1067
  10   2.0000      -1.153855       -31.3980
  11   2.0000      -1.050656       -28.5898
  12   2.0000      -0.990076       -26.9413
  13   2.0000      -0.914948       -24.8970
  14   2.0000      -0.862970       -23.4826
  15   2.0000      -0.838857       -22.8264
  16   2.0000      -0.780356       -21.2346
  17   2.0000      -0.714977       -19.4555
  18   2.0000      -0.681236       -18.5374
  19   2.0000      -0.637580       -17.3494
  20   2.0000      -0.632816       -17.2198
  21   2.0000      -0.608393       -16.5552
  22   2.0000      -0.597870       -16.2689
  23   2.0000      -0.569112       -15.4863
  24   2.0000      -0.557702       -15.1758
  25   2.0000      -0.537445       -14.6246
  26   2.0000      -0.518623       -14.1125
  27   2.0000      -0.506096       -13.7716
  28   2.0000      -0.485976       -13.2241
  29   2.0000      -0.481397       -13.0995
  30   2.0000      -0.466472       -12.6934
  31   2.0000      -0.439539       -11.9605
  32   2.0000      -0.429611       -11.6903
  33   2.0000      -0.396516       -10.7897
  34   2.0000      -0.383289       -10.4298
  35   0.0000       0.136012         3.7011
  36   0.0000       0.142601         3.8804
  37   0.0000       0.158521         4.3136
  38   0.0000       0.161754         4.4015
  39   0.0000       0.179952         4.8967

MULLIKEN ATOMIC CHARGES
-----------------------
   0 C :   -0.393140
   1 C :   -0.216203
   2 C :   -0.113195
   3 C :   -0.321396
   4 C :    0.232138
   5 O :   -0.460106
   6 C :   -0.256620
   7 C :   -0.292261
   8 C :    0.025050
   9 H :    0.133555
  10 H :    0.125638
  11 H :    0.123479
  12 H :    0.095205
  13 H :    0.113690
  14 H :    0.095030
  15 H :    0.120154
  16 H :    0.106806
  17 H :    0.315322
  18 H :    0.109394
  19 H :    0.106720
  20 H :    0.117629
  21 H :    0.122347
  22 H :    0.110765
Sum of atomic charges:   -0.0000000

LOEWDIN ATOMIC CHARGES
----------------------
   0 C :   -0.316881
   1 C :   -0.280298
   2 C :   -0.216536
   3 C :   -0.183432
   4 C :   -0.329379
   5 O :    0.010322
   6 C :   -0.213981
   7 C :   -0.212447
   8 C :   -0.141585
   9 H :    0.120043
  10 H :    0.120788
  11 H :    0.120716
  12 H :    0.133416
  13 H :    0.138704
  14 H :    0.155706
  15 H :    0.129512
  16 H :    0.133749
  17 H :    0.178742
  18 H :    0.136557
  19 H :    0.122281
  20 H :    0.129269
  21 H :    0.128231
  22 H :    0.136502

  Mayer bond orders larger than 0.1
B(  0-C ,  1-C ) :   0.9195 B(  0-C ,  9-H ) :   0.9414 B(  0-C , 10-H ) :   0.9388
B(  0-C , 11-H ) :   0.9394 B(  1-C ,  2-C ) :   0.9123 B(  1-C , 12-H ) :   0.9302
B(  1-C , 13-H ) :   0.9362 B(  2-C ,  3-C ) :   0.9563 B(  2-C ,  8-C ) :   0.9385
B(  2-C , 14-H ) :   0.9106 B(  3-C ,  4-C ) :   0.9235 B(  3-C , 15-H ) :   0.9126
B(  3-C , 16-H ) :   0.8942 B(  4-C ,  5-O ) :   1.0126 B(  4-C ,  6-C ) :   0.9594
B(  4-C ,  8-C ) :   0.9071 B(  5-O , 17-H ) :   0.8386 B(  6-C ,  7-C ) :   0.9654
B(  6-C , 18-H ) :   0.9067 B(  6-C , 19-H ) :   0.9129 B(  7-C ,  8-C ) :   0.9186
B(  7-C , 20-H ) :   0.9206 B(  7-C , 21-H ) :   0.9265 B(  8-C , 22-H ) :   0.8892

MP2 TOTAL ENERGY:     -387.592995564 Eh
FINAL SINGLE POINT ENERGY      -387.592995563629

DIPOLE MOMENT
-------------
                                X             Y             Z
Electronic contribution:     -6.14134      -4.65120       0.55779
Nuclear contribution   :      6.29917       4.84441      -1.01356
                        -----------------------------------------
Total Dipole Moment    :      0.15783       0.19321      -0.45577
                        -----------------------------------------
Magnitude (a.u.)       :      0.51958
Magnitude (Debye)      :      1.32068

                             ****ORCA TERMINATED NORMALLY****
TOTAL RUN TIME: 0 days 0 hours 33 minutes 4 seconds 541 msec
