                         Program Version 3.0.3 - RELEASE   -
|  1> ! RI-MP2 RIJK def2-TZVP def2-TZVP/C def2-TZVP/JK TIGHTSCF
|  2> % maxcore 2000
|  3> % mp2 density relaxed end
|  4> *xyz 0 1
|  5>  C       -0.1119041625     1.6418713159     0.0200166952
|  6>  C       -0.0611796628     0.1302512360    -0.0015881644
|  7>  C       -1.3113726496    -0.5494355766    -0.5154258229
|  8>  O       -1.5107675677    -0.1541625316    -1.8646995256
|  9>  C        1.2481969512    -0.5612206199    -0.2783748625
| 10>  O        2.4026224299     0.1802325187    -0.4917914842
| 11>  C        0.6541575970    -0.6304797967     1.1293864098
| 12>  C        1.3438279281     0.0675413547     2.1691153342
| 13>  C        1.9920651700     0.6464442889     3.0037788363
| 14>  H        0.8742121520     2.0684043499     0.2051809381
| 15>  H       -0.4656948170     2.0013762334    -0.9495301153
| 16>  H       -0.7975699414     2.0019926443     0.7947122401
| 17>  H       -1.2000885585    -1.6436070642    -0.4375455639
| 18>  H       -2.1687118190    -0.2620759387     0.1146595199
| 19>  H       -2.3803371656    -0.4566903160    -2.1421023780
| 20>  H        1.2187426283    -1.4790281186    -0.8621772628
| 21>  H        2.8413213086     0.3103903007     0.3592080185
| 22>  H        0.2160282667    -1.5795237491     1.4262848287
| 23>  H        2.5226581821     1.1632426887     3.7648017687
| 24> *
| 25>
| 26>                          ****END OF INPUT****

CARTESIAN COORDINATES (ANGSTROEM)
---------------------------------
  C     -0.111904    1.641871    0.020017
  C     -0.061180    0.130251   -0.001588
  C     -1.311373   -0.549436   -0.515426
  O     -1.510768   -0.154163   -1.864700
  C      1.248197   -0.561221   -0.278375
  O      2.402622    0.180233   -0.491791
  C      0.654158   -0.630480    1.129386
  C      1.343828    0.067541    2.169115
  C      1.992065    0.646444    3.003779
  H      0.874212    2.068404    0.205181
  H     -0.465695    2.001376   -0.949530
  H     -0.797570    2.001993    0.794712
  H     -1.200089   -1.643607   -0.437546
  H     -2.168712   -0.262076    0.114660
  H     -2.380337   -0.456690   -2.142102
  H      1.218743   -1.479028   -0.862177
  H      2.841321    0.310390    0.359208
  H      0.216028   -1.579524    1.426285
  H      2.522658    1.163243    3.764802

 Total Charge           Charge          ....    0
 Multiplicity           Mult            ....    1
 Number of Electrons    NEL             ....   68
 Basis Dimension        Dim             ....  339

ORBITAL ENERGIES
----------------

  NO   OCC          E(Eh)            E(eV)
   0   2.0000     -20.562516      -559.5345
   1   2.0000     -20.561217      -559.4992
   2   2.0000     -11.293344      -307.3075
   3   2.0000     -11.288006      -307.1622
   4   2.0000     -11.259957      -306.3990
   5   2.0000     -11.249462      -306.1134
   6   2.0000     -11.245886      -306.0161
   7   2.0000     -11.231898      -305.6355
   8   2.0000     -11.210411      -305.0508
   9   2.0000      -1.376831       -37.4655
  10   2.0000      -1.367146       -37.2019
  11   2.0000      -1.163218       -31.6528
  12   2.0000      -1.041521       -28.3412
  13   2.0000      -0.975157       -26.5354
  14   2.0000      -0.931680       -25.3523
  15   2.0000      -0.869090       -23.6491
  16   2.0000      -0.771634       -20.9972
  17   2.0000      -0.727318       -19.7913
  18   2.0000      -0.706278       -19.2188
  19   2.0000      -0.690225       -18.7820
  20   2.0000      -0.681299       -18.5391
  21   2.0000      -0.645075       -17.5534
  22   2.0000      -0.607498       -16.5309
  23   2.0000      -0.581631       -15.8270
  24   2.0000      -0.575080       -15.6487
  25   2.0000      -0.552540       -15.0354
  26   2.0000      -0.536653       -14.6031
  27   2.0000      -0.511204       -13.9106
  28   2.0000      -0.491978       -13.3874
  29   2.0000      -0.464573       -12.6417
  30   2.0000      -0.454481       -12.3671
  31   2.0000      -0.424253       -11.5445
  32   2.0000      -0.377927       -10.2839
  33   2.0000      -0.365095        -9.9347
  34   0.0000       0.126634         3.4459
  35   0.0000       0.152044         4.1373
  36   0.0000       0.153334         4.1724
  37   0.0000       0.163083         4.4377
  38   0.0000       0.170133         4.6296

MULLIKEN ATOMIC CHARGES
-----------------------
   0 C :   -0.391204
   1 C :    0.144385
   2 C :   -0.103575
   3 O :   -0.457248
   4 C :    0.056374
   5 O :   -0.469301
   6 C :   -0.328596
   7 C :   -0.045288
   8 C :   -0.145866
   9 H :    0.133937
  10 H :    0.159411
  11 H :    0.126910
  12 H :    0.097950
  13 H :    0.111027
  14 H :    0.315959
  15 H :    0.125950
  16 H :    0.337221
  17 H :    0.139542
  18 H :    0.192414
Sum of atomic charges:   -0.0000000

LOEWDIN ATOMIC CHARGES
----------------------
   0 C :   -0.254461
   1 C :   -0.231951
   2 C :   -0.305267
   3 O :   -0.037802
   4 C :   -0.257839
   5 O :    0.018612
   6 C :   -0.170201
   7 C :   -0.104575
   8 C :   -0.099581
   9 H :    0.132837
  10 H :    0.137296
  11 H :    0.128686
  12 H :    0.122430
  13 H :    0.123964
  14 H :    0.173489
  15 H :    0.142441
  16 H :    0.187739
  17 H :    0.165787
  18 H :    0.128395

  Mayer bond orders larger than 0.1
B(  0-C ,  1-C ) :   0.9292 B(  0-C ,  9-H ) :   0.9207 B(  0-C , 10-H ) :   0.9352
B(  0-C , 11-H ) :   0.9354 B(  1-C ,  2-C ) :   0.8947 B(  1-C ,  3-O ) :  -0.1037
B(  1-C ,  4-C ) :   0.8273 B(  1-C ,  6-C ) :   0.8065 B(  2-C ,  3-O ) :   1.0642
B(  2-C , 12-H ) :   0.9088 B(  2-C , 13-H ) :   0.9359 B(  3-O , 14-H ) :   0.8457
B(  4-C ,  5-O ) :   1.0102 B(  4-C ,  6-C ) :   0.8573 B(  4-C , 15-H ) :   0.9574
B(  5-O , 16-H ) :   0.8192 B(  6-C ,  7-C ) :   1.1635 B(  6-C ,  8-C ) :  -0.1167
B(  6-C , 17-H ) :   0.9291 B(  7-C ,  8-C ) :   2.5445 B(  8-C , 18-H ) :   0.9051

MP2 TOTAL ENERGY:     -422.264008652 Eh
FINAL SINGLE POINT ENERGY      -422.264008652078

DIPOLE MOMENT
-------------
                                X             Y             Z
Electronic contribution:      3.11429      -1.56848       0.80847
Nuclear contribution   :     -3.84477       1.13513      -0.21261
                        -----------------------------------------
Total Dipole Moment    :     -0.73049      -0.43335       0.59587
                        -----------------------------------------
Magnitude (a.u.)       :      1.03752
Magnitude (Debye)      :      2.63718

                             ****ORCA TERMINATED NORMALLY****
TOTAL RUN TIME: 0 days 0 hours 19 minutes 35 seconds 204 msec
