                         Program Version 3.0.3 - RELEASE   -
|  1> ! RI-MP2 RIJK def2-TZVP def2-TZVP/C def2-TZVP/JK TIGHTSCF
|  2> % maxcore 2000
|  3> % mp2 density relaxed end
|  4> *xyz 0 1
|  5>  C        0.0000997025     1.5762295834     0.0350083751
|  6>  C        0.0846943375     0.0545492940    -0.0264081977
|  7>  C        0.8187193074    -0.5617088516    -1.2323651581
|  8>  C        1.2134849743    -1.9820071495    -0.7634136603
|  9>  C        1.5299187654    -1.7927361255     0.7129305818
| 10>  C        1.7776309993    -2.9107436018     1.7001889249
| 11>  C        2.9134807635    -2.0235774640     1.3101991183
| 12>  C        0.8017726880    -0.5673323995     1.1799206185
| 13>  O        0.7940250437    -0.1350117731     2.3093865965
| 14>  H        0.9948979636     2.0253124953    -0.0567563637
| 15>  H       -0.6255136738     1.9732775642    -0.7699357731
| 16>  H       -0.4195959424     1.8916627589     0.9938741636
| 17>  H       -0.9349258228    -0.3633423446     0.0061222543
| 18>  H        0.2137756933    -0.5696909309    -2.1426727370
| 19>  H        1.7221161839     0.0239982833    -1.4440433371
| 20>  H        0.3646426490    -2.6664852274    -0.8878901794
| 21>  H        2.0495464967    -2.3961552688    -1.3336796758
| 22>  H        1.3519550480    -2.7775064080     2.6892128612
| 23>  H        1.7524881440    -3.9236340509     1.3121801308
| 24>  H        3.6746777730    -2.4127719354     0.6423568281
| 25>  H        3.2537618460    -1.2906636482     2.0334826993
| 26> *
| 27>
| 28>                          ****END OF INPUT****

CARTESIAN COORDINATES (ANGSTROEM)
---------------------------------
  C      0.000100    1.576230    0.035008
  C      0.084694    0.054549   -0.026408
  C      0.818719   -0.561709   -1.232365
  C      1.213485   -1.982007   -0.763414
  C      1.529919   -1.792736    0.712931
  C      1.777631   -2.910744    1.700189
  C      2.913481   -2.023577    1.310199
  C      0.801773   -0.567332    1.179921
  O      0.794025   -0.135012    2.309387
  H      0.994898    2.025312   -0.056756
  H     -0.625514    1.973278   -0.769936
  H     -0.419596    1.891663    0.993874
  H     -0.934926   -0.363342    0.006122
  H      0.213776   -0.569691   -2.142673
  H      1.722116    0.023998   -1.444043
  H      0.364643   -2.666485   -0.887890
  H      2.049546   -2.396155   -1.333680
  H      1.351955   -2.777506    2.689213
  H      1.752488   -3.923634    1.312180
  H      3.674678   -2.412772    0.642357
  H      3.253762   -1.290664    2.033483

 Total Charge           Charge          ....    0
 Multiplicity           Mult            ....    1
 Number of Electrons    NEL             ....   68
 Basis Dimension        Dim             ....  351

ORBITAL ENERGIES
----------------

  NO   OCC          E(Eh)            E(eV)
   0   2.0000     -20.534800      -558.7803
   1   2.0000     -11.319159      -308.0100
   2   2.0000     -11.241972      -305.9096
   3   2.0000     -11.238544      -305.8163
   4   2.0000     -11.238039      -305.8026
   5   2.0000     -11.235475      -305.7328
   6   2.0000     -11.234646      -305.7102
   7   2.0000     -11.232412      -305.6495
   8   2.0000     -11.217246      -305.2368
   9   2.0000      -1.379600       -37.5408
  10   2.0000      -1.169119       -31.8133
  11   2.0000      -1.100779       -29.9537
  12   2.0000      -0.998952       -27.1829
  13   2.0000      -0.904506       -24.6128
  14   2.0000      -0.884266       -24.0621
  15   2.0000      -0.831525       -22.6269
  16   2.0000      -0.786799       -21.4099
  17   2.0000      -0.703082       -19.1318
  18   2.0000      -0.678372       -18.4594
  19   2.0000      -0.661037       -17.9877
  20   2.0000      -0.628890       -17.1130
  21   2.0000      -0.604404       -16.4467
  22   2.0000      -0.592632       -16.1263
  23   2.0000      -0.556617       -15.1463
  24   2.0000      -0.544349       -14.8125
  25   2.0000      -0.541050       -14.7227
  26   2.0000      -0.526503       -14.3269
  27   2.0000      -0.519437       -14.1346
  28   2.0000      -0.514438       -13.9986
  29   2.0000      -0.475905       -12.9500
  30   2.0000      -0.466007       -12.6807
  31   2.0000      -0.436107       -11.8671
  32   2.0000      -0.403421       -10.9777
  33   2.0000      -0.387081       -10.5330
  34   0.0000       0.122302         3.3280
  35   0.0000       0.143993         3.9182
  36   0.0000       0.154730         4.2104
  37   0.0000       0.160866         4.3774
  38   0.0000       0.170811         4.6480

MULLIKEN ATOMIC CHARGES
-----------------------
   0 C :   -0.404429
   1 C :   -0.007916
   2 C :   -0.254432
   3 C :   -0.196339
   4 C :    0.091657
   5 C :   -0.272837
   6 C :   -0.292467
   7 C :    0.079930
   8 O :   -0.304997
   9 H :    0.123324
  10 H :    0.134251
  11 H :    0.151866
  12 H :    0.109267
  13 H :    0.128356
  14 H :    0.114087
  15 H :    0.116624
  16 H :    0.123003
  17 H :    0.146650
  18 H :    0.135105
  19 H :    0.132056
  20 H :    0.147240
Sum of atomic charges:    0.0000000

LOEWDIN ATOMIC CHARGES
----------------------
   0 C :   -0.287234
   1 C :   -0.240912
   2 C :   -0.221698
   3 C :   -0.206914
   4 C :   -0.210798
   5 C :   -0.190622
   6 C :   -0.184798
   7 C :   -0.265055
   8 O :    0.146644
   9 H :    0.125732
  10 H :    0.123478
  11 H :    0.132245
  12 H :    0.169467
  13 H :    0.134250
  14 H :    0.141166
  15 H :    0.141258
  16 H :    0.137907
  17 H :    0.143090
  18 H :    0.136696
  19 H :    0.134672
  20 H :    0.141426

  Mayer bond orders larger than 0.1
B(  0-C ,  1-C ) :   0.9110 B(  0-C ,  9-H ) :   0.9326 B(  0-C , 10-H ) :   0.9414
B(  0-C , 11-H ) :   0.9329 B(  1-C ,  2-C ) :   0.9237 B(  1-C ,  7-C ) :   0.8877
B(  1-C , 12-H ) :   0.8962 B(  2-C ,  3-C ) :   0.9371 B(  2-C , 13-H ) :   0.9284
B(  2-C , 14-H ) :   0.9234 B(  3-C ,  4-C ) :   0.8961 B(  3-C , 15-H ) :   0.9250
B(  3-C , 16-H ) :   0.9207 B(  4-C ,  5-C ) :   0.8098 B(  4-C ,  6-C ) :   0.8052
B(  4-C ,  7-C ) :   0.9441 B(  5-C ,  6-C ) :   0.9735 B(  5-C , 17-H ) :   0.9180
B(  5-C , 18-H ) :   0.9266 B(  6-C , 19-H ) :   0.9254 B(  6-C , 20-H ) :   0.9200
B(  7-C ,  8-O ) :   2.0020

MP2 TOTAL ENERGY:     -386.443536200 Eh
FINAL SINGLE POINT ENERGY      -386.443536199515

DIPOLE MOMENT
-------------
                                X             Y             Z
Electronic contribution:     -0.15454      -0.73160       4.62143
Nuclear contribution   :      0.23686       0.26446      -5.61683
                        -----------------------------------------
Total Dipole Moment    :      0.08231      -0.46715      -0.99540
                        -----------------------------------------
Magnitude (a.u.)       :      1.10265
Magnitude (Debye)      :      2.80271

                             ****ORCA TERMINATED NORMALLY****
TOTAL RUN TIME: 0 days 0 hours 19 minutes 55 seconds 182 msec
