                         Program Version 3.0.3 - RELEASE   -
|  1> ! RI-MP2 RIJK def2-TZVP def2-TZVP/C def2-TZVP/JK TIGHTSCF
|  2> % maxcore 2000
|  3> % mp2 density relaxed end
|  4> *xyz 0 1
|  5>  O        0.0285646661     0.1448875207    -0.7802824526
|  6>  C       -0.0327613544     1.2221505612    -0.2606737227
|  7>  C       -1.1693113322     2.1507720258     0.2463219989
|  8>  O       -1.3479842786     2.0244312780     1.6731960913
|  9>  C       -0.4998352306     3.1727345585     1.9344133504
| 10>  C       -0.1021288146     3.2818121146     0.4537672342
| 11>  C        0.9963038504     2.2938104744     0.0366090645
| 12>  C        2.3885273200     2.0767493650     0.5160313117
| 13>  N        2.1397634772     2.5892108266    -0.8305798176
| 14>  H       -2.1059669525     2.2187917617    -0.3120399865
| 15>  H       -1.0916412501     4.0157825832     2.3099067375
| 16>  H        0.3024385831     2.9435836779     2.6445674071
| 17>  H       -0.1192746070     4.2457104627    -0.0487953578
| 18>  H        2.8227284649     2.7957469727     1.2053886363
| 19>  H        2.7168562883     1.0481515517     0.6416487174
| 20>  H        2.2313779101     1.8388313352    -1.5151150119
| 21> *
| 22>
| 23>                          ****END OF INPUT****

CARTESIAN COORDINATES (ANGSTROEM)
---------------------------------
  O      0.028565    0.144888   -0.780282
  C     -0.032761    1.222151   -0.260674
  C     -1.169311    2.150772    0.246322
  O     -1.347984    2.024431    1.673196
  C     -0.499835    3.172735    1.934413
  C     -0.102129    3.281812    0.453767
  C      0.996304    2.293810    0.036609
  C      2.388527    2.076749    0.516031
  N      2.139763    2.589211   -0.830580
  H     -2.105967    2.218792   -0.312040
  H     -1.091641    4.015783    2.309907
  H      0.302439    2.943584    2.644567
  H     -0.119275    4.245710   -0.048795
  H      2.822728    2.795747    1.205389
  H      2.716856    1.048152    0.641649
  H      2.231378    1.838831   -1.515115

 Total Charge           Charge          ....    0
 Multiplicity           Mult            ....    1
 Number of Electrons    NEL             ....   66
 Basis Dimension        Dim             ....  321

ORBITAL ENERGIES
----------------

  NO   OCC          E(Eh)            E(eV)
   0   2.0000     -20.574451      -559.8593
   1   2.0000     -20.571110      -559.7684
   2   2.0000     -15.586925      -424.1418
   3   2.0000     -11.344334      -308.6950
   4   2.0000     -11.309624      -307.7505
   5   2.0000     -11.299687      -307.4801
   6   2.0000     -11.288254      -307.1690
   7   2.0000     -11.282269      -307.0061
   8   2.0000     -11.260231      -306.4065
   9   2.0000      -1.416807       -38.5533
  10   2.0000      -1.397758       -38.0349
  11   2.0000      -1.289799       -35.0972
  12   2.0000      -1.105899       -30.0931
  13   2.0000      -0.980438       -26.6791
  14   2.0000      -0.909718       -24.7547
  15   2.0000      -0.867401       -23.6032
  16   2.0000      -0.821001       -22.3406
  17   2.0000      -0.741688       -20.1823
  18   2.0000      -0.706854       -19.2345
  19   2.0000      -0.702016       -19.1028
  20   2.0000      -0.679909       -18.5013
  21   2.0000      -0.644369       -17.5342
  22   2.0000      -0.620141       -16.8749
  23   2.0000      -0.608232       -16.5508
  24   2.0000      -0.568343       -15.4654
  25   2.0000      -0.547596       -14.9009
  26   2.0000      -0.526344       -14.3225
  27   2.0000      -0.520007       -14.1501
  28   2.0000      -0.477526       -12.9941
  29   2.0000      -0.464380       -12.6364
  30   2.0000      -0.455524       -12.3954
  31   2.0000      -0.410765       -11.1775
  32   2.0000      -0.399017       -10.8578
  33   0.0000       0.099398         2.7048
  34   0.0000       0.139664         3.8004
  35   0.0000       0.151857         4.1322
  36   0.0000       0.157927         4.2974
  37   0.0000       0.171628         4.6702

MULLIKEN ATOMIC CHARGES
-----------------------
   0 O :   -0.246460
   1 C :    0.112157
   2 C :    0.102716
   3 O :   -0.327541
   4 C :   -0.040850
   5 C :   -0.088308
   6 C :    0.014235
   7 C :   -0.172071
   8 N :   -0.369270
   9 H :    0.126916
  10 H :    0.111031
  11 H :    0.106334
  12 H :    0.151348
  13 H :    0.133357
  14 H :    0.148104
  15 H :    0.238304
Sum of atomic charges:    0.0000000

LOEWDIN ATOMIC CHARGES
----------------------
   0 O :    0.175303
   1 C :   -0.267260
   2 C :   -0.188215
   3 O :    0.144550
   4 C :   -0.238897
   5 C :   -0.147753
   6 C :   -0.246603
   7 C :   -0.225221
   8 N :    0.029799
   9 H :    0.132395
  10 H :    0.122251
  11 H :    0.121357
  12 H :    0.145753
  13 H :    0.132182
  14 H :    0.131735
  15 H :    0.178625

  Mayer bond orders larger than 0.1
B(  0-O ,  1-C ) :   2.0174 B(  1-C ,  2-C ) :   0.8412 B(  1-C ,  6-C ) :   0.9007
B(  2-C ,  3-O ) :   0.9224 B(  2-C ,  5-C ) :   0.9241 B(  2-C ,  9-H ) :   0.9206
B(  3-O ,  4-C ) :   0.9230 B(  4-C ,  5-C ) :   0.9601 B(  4-C , 10-H ) :   0.9239
B(  4-C , 11-H ) :   0.9074 B(  5-C ,  6-C ) :   0.8270 B(  5-C , 12-H ) :   0.9078
B(  6-C ,  7-C ) :   0.8666 B(  6-C ,  8-N ) :   0.8791 B(  7-C ,  8-N ) :   0.9603
B(  7-C , 13-H ) :   0.9182 B(  7-C , 14-H ) :   0.9133 B(  8-N , 15-H ) :   0.8620

MP2 TOTAL ENERGY:     -437.098059495 Eh
FINAL SINGLE POINT ENERGY      -437.098059494521

DIPOLE MOMENT
-------------
                                X             Y             Z
Electronic contribution:     -2.36672      -3.37016      -2.13066
Nuclear contribution   :      2.73228       4.21240       2.37310
                        -----------------------------------------
Total Dipole Moment    :      0.36555       0.84224       0.24244
                        -----------------------------------------
Magnitude (a.u.)       :      0.94962
Magnitude (Debye)      :      2.41374

                             ****ORCA TERMINATED NORMALLY****
TOTAL RUN TIME: 0 days 0 hours 16 minutes 53 seconds 964 msec
