                         Program Version 3.0.3 - RELEASE   -
|  1> ! RI-MP2 RIJK def2-TZVP def2-TZVP/C def2-TZVP/JK TIGHTSCF
|  2> % maxcore 2000
|  3> % mp2 density relaxed end
|  4> *xyz 0 1
|  5>  O        0.0986077374    -0.0151300300     0.1472581012
|  6>  C        0.2685186307     1.1214933012    -0.1399720535
|  7>  O        0.4476014165     2.0911327473     0.8283561092
|  8>  C        0.7269586217     3.3406979618     0.4086471978
|  9>  C        1.7391170256     3.9179040910    -0.2810761410
| 10>  N        1.4752725450     5.2799444836    -0.3836638228
| 11>  C        0.3552697149     5.4390257240     0.2376323364
| 12>  O       -0.1771358399     4.2982669520     0.7494242715
| 13>  H        0.3154961997     1.5515459482    -1.1548394558
| 14>  H        2.6282431222     3.4653613481    -0.6878745229
| 15>  H       -0.2009974037     6.3470982927     0.4063804699
| 16> *
| 17>
| 18>                          ****END OF INPUT****

CARTESIAN COORDINATES (ANGSTROEM)
---------------------------------
  O      0.098608   -0.015130    0.147258
  C      0.268519    1.121493   -0.139972
  O      0.447601    2.091133    0.828356
  C      0.726959    3.340698    0.408647
  C      1.739117    3.917904   -0.281076
  N      1.475273    5.279944   -0.383664
  C      0.355270    5.439026    0.237632
  O     -0.177136    4.298267    0.749424
  H      0.315496    1.551546   -1.154839
  H      2.628243    3.465361   -0.687875
  H     -0.200997    6.347098    0.406380

 Total Charge           Charge          ....    0
 Multiplicity           Mult            ....    1
 Number of Electrons    NEL             ....   58
 Basis Dimension        Dim             ....  266

ORBITAL ENERGIES
----------------

  NO   OCC          E(Eh)            E(eV)
   0   2.0000     -20.666158      -562.3547
   1   2.0000     -20.655432      -562.0629
   2   2.0000     -20.586698      -560.1925
   3   2.0000     -15.590374      -424.2356
   4   2.0000     -11.416026      -310.6458
   5   2.0000     -11.382960      -309.7461
   6   2.0000     -11.355217      -308.9912
   7   2.0000     -11.285207      -307.0861
   8   2.0000      -1.537679       -41.8424
   9   2.0000      -1.489939       -40.5433
  10   2.0000      -1.415753       -38.5246
  11   2.0000      -1.258626       -34.2489
  12   2.0000      -1.056514       -28.7492
  13   2.0000      -0.926080       -25.1999
  14   2.0000      -0.872025       -23.7290
  15   2.0000      -0.840642       -22.8750
  16   2.0000      -0.797141       -21.6913
  17   2.0000      -0.722135       -19.6503
  18   2.0000      -0.714897       -19.4533
  19   2.0000      -0.681498       -18.5445
  20   2.0000      -0.668484       -18.1904
  21   2.0000      -0.626455       -17.0467
  22   2.0000      -0.617981       -16.8161
  23   2.0000      -0.604430       -16.4474
  24   2.0000      -0.527731       -14.3603
  25   2.0000      -0.495462       -13.4822
  26   2.0000      -0.481104       -13.0915
  27   2.0000      -0.479059       -13.0359
  28   2.0000      -0.362399        -9.8614
  29   0.0000       0.118384         3.2214
  30   0.0000       0.127516         3.4699
  31   0.0000       0.151460         4.1214
  32   0.0000       0.167195         4.5496
  33   0.0000       0.176184         4.7942

MULLIKEN ATOMIC CHARGES
-----------------------
   0 O :   -0.224084
   1 C :    0.193707
   2 O :   -0.205088
   3 C :    0.244390
   4 C :   -0.132530
   5 N :   -0.261661
   6 C :    0.118590
   7 O :   -0.182443
   8 H :    0.113797
   9 H :    0.165734
  10 H :    0.169588
Sum of atomic charges:   -0.0000000

LOEWDIN ATOMIC CHARGES
----------------------
   0 O :    0.163664
   1 C :   -0.392372
   2 O :    0.307867
   3 C :   -0.386577
   4 C :   -0.236399
   5 N :    0.105248
   6 C :   -0.312874
   7 O :    0.355957
   8 H :    0.116195
   9 H :    0.143325
  10 H :    0.135967

  Mayer bond orders larger than 0.1
B(  0-O ,  1-C ) :   2.0685 B(  1-C ,  2-O ) :   0.9487 B(  1-C ,  8-H ) :   0.9121
B(  2-O ,  3-C ) :   1.0261 B(  3-C ,  4-C ) :   1.5743 B(  3-C ,  7-O ) :   1.0590
B(  4-C ,  5-N ) :   1.1675 B(  4-C ,  9-H ) :   0.9228 B(  5-N ,  6-C ) :   1.6494
B(  6-C ,  7-O ) :   1.0500 B(  6-C , 10-H ) :   0.9223

MP2 TOTAL ENERGY:     -433.886473923 Eh
FINAL SINGLE POINT ENERGY      -433.886473923234

DIPOLE MOMENT
-------------
                                X             Y             Z
Electronic contribution:     -1.00981      -1.26410       1.52628
Nuclear contribution   :      0.90351       1.83291      -1.91900
                        -----------------------------------------
Total Dipole Moment    :     -0.10630       0.56880      -0.39272
                        -----------------------------------------
Magnitude (a.u.)       :      0.69933
Magnitude (Debye)      :      1.77757

                             ****ORCA TERMINATED NORMALLY****
TOTAL RUN TIME: 0 days 0 hours 7 minutes 52 seconds 719 msec
