                         Program Version 3.0.3 - RELEASE   -
|  1> ! RI-MP2 RIJK def2-TZVP def2-TZVP/C def2-TZVP/JK TIGHTSCF
|  2> % maxcore 2000
|  3> % mp2 density relaxed end
|  4> *xyz 0 1
|  5>  C       -0.4719834340     1.0349730127     0.2626826170
|  6>  C       -0.0242804425    -0.4307253540     0.1997545777
|  7>  C        0.6321244269    -0.8090266584    -1.1272902657
|  8>  C        1.8243191388    -0.0387182300    -1.4155614274
|  9>  C        2.8297636060     0.5886665249    -1.6219424487
| 10>  C        0.5796169960    -2.2275697382    -1.6533113592
| 11>  C       -0.0785370138    -3.3729937515    -0.9135265343
| 12>  N       -0.1505044396    -1.1652533040    -2.3335761709
| 13>  C       -1.6047781930    -1.1279032936    -2.3219780749
| 14>  H        0.3695636565     1.7069889447     0.0740721742
| 15>  H       -1.2443627467     1.2495223515    -0.4824558436
| 16>  H       -0.8828018451     1.2696673477     1.2492398374
| 17>  H        0.7054508065    -0.6235090350     0.9952445374
| 18>  H       -0.8753631079    -1.0841045031     0.4018826368
| 19>  H        3.7124250163     1.1436935503    -1.8222969577
| 20>  H        1.4573448551    -2.5451185045    -2.2162389074
| 21>  H       -0.9427739274    -3.0765068020    -0.3179318499
| 22>  H       -0.4113737550    -4.1361062252    -1.6258907654
| 23>  H        0.6449444581    -3.8460556534    -0.2413353013
| 24>  H       -2.0930311161    -1.4122873506    -1.3792716225
| 25>  H       -1.9309508992    -0.1153739274    -2.5787943496
| 26>  H       -1.9702723799    -1.8028234610    -3.1030508817
| 27> *
| 28>
| 29>                          ****END OF INPUT****

CARTESIAN COORDINATES (ANGSTROEM)
---------------------------------
  C     -0.471983    1.034973    0.262683
  C     -0.024280   -0.430725    0.199755
  C      0.632124   -0.809027   -1.127290
  C      1.824319   -0.038718   -1.415561
  C      2.829764    0.588667   -1.621942
  C      0.579617   -2.227570   -1.653311
  C     -0.078537   -3.372994   -0.913527
  N     -0.150504   -1.165253   -2.333576
  C     -1.604778   -1.127903   -2.321978
  H      0.369564    1.706989    0.074072
  H     -1.244363    1.249522   -0.482456
  H     -0.882802    1.269667    1.249240
  H      0.705451   -0.623509    0.995245
  H     -0.875363   -1.084105    0.401883
  H      3.712425    1.143694   -1.822297
  H      1.457345   -2.545119   -2.216239
  H     -0.942774   -3.076507   -0.317932
  H     -0.411374   -4.136106   -1.625891
  H      0.644944   -3.846056   -0.241335
  H     -2.093031   -1.412287   -1.379272
  H     -1.930951   -0.115374   -2.578794
  H     -1.970272   -1.802823   -3.103051

 Total Charge           Charge          ....    0
 Multiplicity           Mult            ....    1
 Number of Electrons    NEL             ....   68
 Basis Dimension        Dim             ....  357

ORBITAL ENERGIES
----------------

  NO   OCC          E(Eh)            E(eV)
   0   2.0000     -15.559435      -423.3937
   1   2.0000     -11.282794      -307.0204
   2   2.0000     -11.264907      -306.5337
   3   2.0000     -11.248637      -306.0910
   4   2.0000     -11.233455      -305.6778
   5   2.0000     -11.228199      -305.5348
   6   2.0000     -11.226411      -305.4862
   7   2.0000     -11.215673      -305.1940
   8   2.0000     -11.214526      -305.1628
   9   2.0000      -1.277181       -34.7539
  10   2.0000      -1.064113       -28.9560
  11   2.0000      -1.017636       -27.6913
  12   2.0000      -1.011602       -27.5271
  13   2.0000      -0.965370       -26.2691
  14   2.0000      -0.885068       -24.0839
  15   2.0000      -0.809755       -22.0345
  16   2.0000      -0.782535       -21.2939
  17   2.0000      -0.709439       -19.3048
  18   2.0000      -0.681403       -18.5419
  19   2.0000      -0.637134       -17.3373
  20   2.0000      -0.624333       -16.9890
  21   2.0000      -0.598634       -16.2896
  22   2.0000      -0.582682       -15.8556
  23   2.0000      -0.566991       -15.4286
  24   2.0000      -0.552145       -15.0246
  25   2.0000      -0.546650       -14.8751
  26   2.0000      -0.525474       -14.2989
  27   2.0000      -0.502582       -13.6759
  28   2.0000      -0.494117       -13.4456
  29   2.0000      -0.465455       -12.6657
  30   2.0000      -0.451486       -12.2856
  31   2.0000      -0.390020       -10.6130
  32   2.0000      -0.380037       -10.3413
  33   2.0000      -0.347865        -9.4659
  34   0.0000       0.131724         3.5844
  35   0.0000       0.156191         4.2502
  36   0.0000       0.161526         4.3953
  37   0.0000       0.172740         4.7005
  38   0.0000       0.174728         4.7546

MULLIKEN ATOMIC CHARGES
-----------------------
   0 C :   -0.406919
   1 C :   -0.174468
   2 C :   -0.082491
   3 C :    0.015782
   4 C :   -0.132271
   5 C :   -0.058395
   6 C :   -0.390165
   7 N :   -0.214132
   8 C :   -0.316893
   9 H :    0.148672
  10 H :    0.127318
  11 H :    0.132984
  12 H :    0.128661
  13 H :    0.100381
  14 H :    0.187802
  15 H :    0.122369
  16 H :    0.127012
  17 H :    0.142752
  18 H :    0.143686
  19 H :    0.108173
  20 H :    0.146200
  21 H :    0.143941
Sum of atomic charges:    0.0000000

LOEWDIN ATOMIC CHARGES
----------------------
   0 C :   -0.305098
   1 C :   -0.238737
   2 C :   -0.251501
   3 C :   -0.061527
   4 C :   -0.095219
   5 C :   -0.227117
   6 C :   -0.295103
   7 N :    0.137915
   8 C :   -0.328228
   9 H :    0.129203
  10 H :    0.121447
  11 H :    0.121523
  12 H :    0.149892
  13 H :    0.136669
  14 H :    0.125993
  15 H :    0.148428
  16 H :    0.121670
  17 H :    0.130468
  18 H :    0.133150
  19 H :    0.103508
  20 H :    0.120649
  21 H :    0.122015

  Mayer bond orders larger than 0.1
B(  0-C ,  1-C ) :   0.9186 B(  0-C ,  9-H ) :   0.9349 B(  0-C , 10-H ) :   0.9376
B(  0-C , 11-H ) :   0.9386 B(  1-C ,  2-C ) :   0.9601 B(  1-C , 12-H ) :   0.9274
B(  1-C , 13-H ) :   0.9248 B(  2-C ,  3-C ) :   1.1686 B(  2-C ,  4-C ) :  -0.1465
B(  2-C ,  5-C ) :   0.8787 B(  2-C ,  7-N ) :   0.8076 B(  3-C ,  4-C ) :   2.5757
B(  4-C , 14-H ) :   0.8897 B(  5-C ,  6-C ) :   0.8856 B(  5-C ,  7-N ) :   0.9677
B(  5-C , 15-H ) :   0.9102 B(  6-C , 16-H ) :   0.9411 B(  6-C , 17-H ) :   0.9336
B(  6-C , 18-H ) :   0.9302 B(  7-N ,  8-C ) :   0.8844 B(  8-C , 19-H ) :   0.9248
B(  8-C , 20-H ) :   0.9376 B(  8-C , 21-H ) :   0.9335

MP2 TOTAL ENERGY:     -366.479253256 Eh
FINAL SINGLE POINT ENERGY      -366.479253255518

DIPOLE MOMENT
-------------
                                X             Y             Z
Electronic contribution:      6.68806       1.56563      -3.68500
Nuclear contribution   :     -7.07882      -1.92291       4.18337
                        -----------------------------------------
Total Dipole Moment    :     -0.39076      -0.35728       0.49837
                        -----------------------------------------
Magnitude (a.u.)       :      0.72713
Magnitude (Debye)      :      1.84821

                             ****ORCA TERMINATED NORMALLY****
TOTAL RUN TIME: 0 days 0 hours 23 minutes 23 seconds 692 msec
