                         Program Version 3.0.3 - RELEASE   -
|  1> ! RI-MP2 RIJK def2-TZVP def2-TZVP/C def2-TZVP/JK TIGHTSCF
|  2> % maxcore 2000
|  3> % mp2 density relaxed end
|  4> *xyz 0 1
|  5>  C       -0.1934168316     1.6027983318     0.0456351580
|  6>  C       -0.0572868360     0.0897094139     0.0260794130
|  7>  O       -1.3262063562    -0.4450994165     0.3182908218
|  8>  C        0.6543991788    -0.5092923479    -1.2740509081
|  9>  N        1.7097919457    -0.9960949436    -0.3598824199
| 10>  C        2.8883467490    -1.5835161416    -0.0332508510
| 11>  N        3.0720006078    -1.5072554816     1.2762557856
| 12>  C        1.9900620061    -0.8377372734     1.8085972348
| 13>  C        1.1336155728    -0.5152401411     0.7818626481
| 14>  H        0.7480015308     2.0851040473    -0.2278067114
| 15>  H       -0.9730047042     1.9158243324    -0.6556888966
| 16>  H       -0.4803937283     1.9356056835     1.0464605811
| 17>  H       -1.2119506772    -1.3670365339     0.5735188778
| 18>  H        0.0907855283    -1.3076880434    -1.7622898610
| 19>  H        1.0092246404     0.2149797601    -2.0113358358
| 20>  H        3.5594949218    -2.0455010362    -0.7399490186
| 21>  H        1.9144063821    -0.6506208199     2.8678178123
| 22> *
| 23>
| 24>                          ****END OF INPUT****

CARTESIAN COORDINATES (ANGSTROEM)
---------------------------------
  C     -0.193417    1.602798    0.045635
  C     -0.057287    0.089709    0.026079
  O     -1.326206   -0.445099    0.318291
  C      0.654399   -0.509292   -1.274051
  N      1.709792   -0.996095   -0.359882
  C      2.888347   -1.583516   -0.033251
  N      3.072001   -1.507255    1.276256
  C      1.990062   -0.837737    1.808597
  C      1.133616   -0.515240    0.781863
  H      0.748002    2.085104   -0.227807
  H     -0.973005    1.915824   -0.655689
  H     -0.480394    1.935606    1.046461
  H     -1.211951   -1.367037    0.573519
  H      0.090786   -1.307688   -1.762290
  H      1.009225    0.214980   -2.011336
  H      3.559495   -2.045501   -0.739949
  H      1.914406   -0.650621    2.867818

 Total Charge           Charge          ....    0
 Multiplicity           Mult            ....    1
 Number of Electrons    NEL             ....   66
 Basis Dimension        Dim             ....  327

ORBITAL ENERGIES
----------------

  NO   OCC          E(Eh)            E(eV)
   0   2.0000     -20.575959      -559.9003
   1   2.0000     -15.612416      -424.8355
   2   2.0000     -15.545121      -423.0042
   3   2.0000     -11.329583      -308.2936
   4   2.0000     -11.299711      -307.4808
   5   2.0000     -11.294835      -307.3481
   6   2.0000     -11.255943      -306.2898
   7   2.0000     -11.247018      -306.0469
   8   2.0000     -11.230305      -305.5921
   9   2.0000      -1.393854       -37.9287
  10   2.0000      -1.352020       -36.7903
  11   2.0000      -1.198491       -32.6126
  12   2.0000      -1.051248       -28.6059
  13   2.0000      -0.992728       -27.0135
  14   2.0000      -0.962702       -26.1964
  15   2.0000      -0.856731       -23.3128
  16   2.0000      -0.796610       -21.6769
  17   2.0000      -0.757153       -20.6032
  18   2.0000      -0.727831       -19.8053
  19   2.0000      -0.677830       -18.4447
  20   2.0000      -0.662535       -18.0285
  21   2.0000      -0.638270       -17.3682
  22   2.0000      -0.581707       -15.8291
  23   2.0000      -0.576262       -15.6809
  24   2.0000      -0.568184       -15.4611
  25   2.0000      -0.556593       -15.1457
  26   2.0000      -0.551372       -15.0036
  27   2.0000      -0.532805       -14.4984
  28   2.0000      -0.495639       -13.4870
  29   2.0000      -0.471657       -12.8344
  30   2.0000      -0.417072       -11.3491
  31   2.0000      -0.384581       -10.4650
  32   2.0000      -0.318624        -8.6702
  33   0.0000       0.122696         3.3387
  34   0.0000       0.144048         3.9197
  35   0.0000       0.159599         4.3429
  36   0.0000       0.175509         4.7759
  37   0.0000       0.178917         4.8686

MULLIKEN ATOMIC CHARGES
-----------------------
   0 C :   -0.401153
   1 C :    0.305409
   2 O :   -0.444899
   3 C :   -0.206104
   4 N :   -0.046707
   5 C :    0.008223
   6 N :   -0.278219
   7 C :   -0.146670
   8 C :   -0.101616
   9 H :    0.135996
  10 H :    0.143273
  11 H :    0.140428
  12 H :    0.324911
  13 H :    0.139187
  14 H :    0.141090
  15 H :    0.148927
  16 H :    0.137924
Sum of atomic charges:   -0.0000000

LOEWDIN ATOMIC CHARGES
----------------------
   0 C :   -0.262353
   1 C :   -0.352553
   2 O :    0.023423
   3 C :   -0.153132
   4 N :    0.283242
   5 C :   -0.309454
   6 N :    0.088090
   7 C :   -0.241434
   8 C :   -0.181503
   9 H :    0.131853
  10 H :    0.132005
  11 H :    0.134292
  12 H :    0.182186
  13 H :    0.130912
  14 H :    0.131455
  15 H :    0.130538
  16 H :    0.132435

  Mayer bond orders larger than 0.1
B(  0-C ,  1-C ) :   0.8884 B(  0-C ,  9-H ) :   0.9322 B(  0-C , 10-H ) :   0.9317
B(  0-C , 11-H ) :   0.9355 B(  1-C ,  2-O ) :   1.0201 B(  1-C ,  3-C ) :   0.8718
B(  1-C ,  8-C ) :   0.9364 B(  2-O , 12-H ) :   0.8352 B(  3-C ,  4-N ) :   0.8619
B(  3-C , 13-H ) :   0.9101 B(  3-C , 14-H ) :   0.9115 B(  4-N ,  5-C ) :   1.1586
B(  4-N ,  8-C ) :   1.1006 B(  5-C ,  6-N ) :   1.5036 B(  5-C , 15-H ) :   0.9242
B(  6-N ,  7-C ) :   1.3226 B(  7-C ,  8-C ) :   1.4348 B(  7-C , 16-H ) :   0.9446

MP2 TOTAL ENERGY:     -417.303704678 Eh
FINAL SINGLE POINT ENERGY      -417.303704677756

DIPOLE MOMENT
-------------
                                X             Y             Z
Electronic contribution:      2.75507      -4.27546       1.81904
Nuclear contribution   :     -3.36030       4.50105      -2.86255
                        -----------------------------------------
Total Dipole Moment    :     -0.60523       0.22559      -1.04351
                        -----------------------------------------
Magnitude (a.u.)       :      1.22723
Magnitude (Debye)      :      3.11938

                             ****ORCA TERMINATED NORMALLY****
TOTAL RUN TIME: 0 days 0 hours 17 minutes 9 seconds 201 msec
