                         Program Version 3.0.3 - RELEASE   -
|  1> ! RI-MP2 RIJK def2-TZVP def2-TZVP/C def2-TZVP/JK TIGHTSCF
|  2> % maxcore 2000
|  3> % mp2 density relaxed end
|  4> *xyz 0 1
|  5>  O       -0.2010789476     1.5583496906     0.0305793439
|  6>  C       -0.0415808924     0.1648091516    -0.1915847794
|  7>  C       -1.3704229847    -0.5327240922     0.1228991175
|  8>  C       -1.2726070535    -2.0213809851    -0.2646670695
|  9>  C       -2.5716454532    -2.7861614746    -0.2490984252
| 10>  C       -3.5164656954    -2.7874364752     0.6891854177
| 11>  C       -3.5724172405    -2.0665543535     2.0064260361
| 12>  C       -2.6256522174    -0.9433870463     2.3271740188
| 13>  C       -1.7453324713    -0.2947008442     1.5665796819
| 14>  H        0.6593883788     1.9782426787    -0.0555700890
| 15>  H        0.2383186558    -0.0365532594    -1.2375710227
| 16>  H        0.7522518941    -0.2517420253     0.4504439280
| 17>  H       -2.1254803188    -0.0624548226    -0.5229701392
| 18>  H       -0.8465551242    -2.0888160964    -1.2730988358
| 19>  H       -0.5453803871    -2.5091242189     0.3998279626
| 20>  H       -2.7388303811    -3.4246956343    -1.1142594938
| 21>  H       -4.3801669437    -3.4290849783     0.5188700156
| 22>  H       -4.5955664181    -1.6769211037     2.1379440389
| 23>  H       -3.4921745036    -2.8238776259     2.8049819690
| 24>  H       -2.7339451764    -0.5912298647     3.3527957580
| 25>  H       -1.2204120495     0.5417281998     2.0213505165
| 26> *
| 27>
| 28>                          ****END OF INPUT****

CARTESIAN COORDINATES (ANGSTROEM)
---------------------------------
  O     -0.201079    1.558350    0.030579
  C     -0.041581    0.164809   -0.191585
  C     -1.370423   -0.532724    0.122899
  C     -1.272607   -2.021381   -0.264667
  C     -2.571645   -2.786161   -0.249098
  C     -3.516466   -2.787436    0.689185
  C     -3.572417   -2.066554    2.006426
  C     -2.625652   -0.943387    2.327174
  C     -1.745332   -0.294701    1.566580
  H      0.659388    1.978243   -0.055570
  H      0.238319   -0.036553   -1.237571
  H      0.752252   -0.251742    0.450444
  H     -2.125480   -0.062455   -0.522970
  H     -0.846555   -2.088816   -1.273099
  H     -0.545380   -2.509124    0.399828
  H     -2.738830   -3.424696   -1.114259
  H     -4.380167   -3.429085    0.518870
  H     -4.595566   -1.676921    2.137944
  H     -3.492175   -2.823878    2.804982
  H     -2.733945   -0.591230    3.352796
  H     -1.220412    0.541728    2.021351

 Total Charge           Charge          ....    0
 Multiplicity           Mult            ....    1
 Number of Electrons    NEL             ....   68
 Basis Dimension        Dim             ....  351

ORBITAL ENERGIES
----------------

  NO   OCC          E(Eh)            E(eV)
   0   2.0000     -20.556505      -559.3710
   1   2.0000     -11.275421      -306.8198
   2   2.0000     -11.230364      -305.5937
   3   2.0000     -11.228774      -305.5505
   4   2.0000     -11.225462      -305.4603
   5   2.0000     -11.223873      -305.4171
   6   2.0000     -11.220939      -305.3373
   7   2.0000     -11.220683      -305.3303
   8   2.0000     -11.214523      -305.1627
   9   2.0000      -1.361336       -37.0438
  10   2.0000      -1.116924       -30.3931
  11   2.0000      -1.049274       -28.5522
  12   2.0000      -1.032410       -28.0933
  13   2.0000      -0.936346       -25.4793
  14   2.0000      -0.894492       -24.3404
  15   2.0000      -0.831945       -22.6384
  16   2.0000      -0.733979       -19.9726
  17   2.0000      -0.708801       -19.2875
  18   2.0000      -0.683534       -18.5999
  19   2.0000      -0.664342       -18.0777
  20   2.0000      -0.644713       -17.5435
  21   2.0000      -0.600661       -16.3448
  22   2.0000      -0.586254       -15.9528
  23   2.0000      -0.572784       -15.5862
  24   2.0000      -0.569575       -15.4989
  25   2.0000      -0.537546       -14.6274
  26   2.0000      -0.523253       -14.2384
  27   2.0000      -0.505841       -13.7646
  28   2.0000      -0.496833       -13.5195
  29   2.0000      -0.460388       -12.5278
  30   2.0000      -0.452284       -12.3073
  31   2.0000      -0.437191       -11.8966
  32   2.0000      -0.351037        -9.5522
  33   2.0000      -0.335046        -9.1171
  34   0.0000       0.130225         3.5436
  35   0.0000       0.142051         3.8654
  36   0.0000       0.148873         4.0510
  37   0.0000       0.168569         4.5870
  38   0.0000       0.173545         4.7224

MULLIKEN ATOMIC CHARGES
-----------------------
   0 O :   -0.470990
   1 C :   -0.090704
   2 C :    0.076078
   3 C :   -0.188115
   4 C :   -0.183589
   5 C :   -0.210573
   6 C :   -0.090472
   7 C :   -0.181816
   8 C :   -0.245260
   9 H :    0.317282
  10 H :    0.100969
  11 H :    0.100536
  12 H :    0.099079
  13 H :    0.117082
  14 H :    0.123306
  15 H :    0.116225
  16 H :    0.115201
  17 H :    0.128652
  18 H :    0.128121
  19 H :    0.115466
  20 H :    0.123521
Sum of atomic charges:    0.0000000

LOEWDIN ATOMIC CHARGES
----------------------
   0 O :   -0.044393
   1 C :   -0.327729
   2 C :   -0.242973
   3 C :   -0.225668
   4 C :   -0.179503
   5 C :   -0.176435
   6 C :   -0.247592
   7 C :   -0.175957
   8 C :   -0.154672
   9 H :    0.172545
  10 H :    0.116949
  11 H :    0.118497
  12 H :    0.166735
  13 H :    0.143648
  14 H :    0.150623
  15 H :    0.144313
  16 H :    0.146312
  17 H :    0.157532
  18 H :    0.157366
  19 H :    0.147097
  20 H :    0.153303

  Mayer bond orders larger than 0.1
B(  0-O ,  1-C ) :   1.0165 B(  0-O ,  9-H ) :   0.8473 B(  1-C ,  2-C ) :   0.9275
B(  1-C , 10-H ) :   0.9261 B(  1-C , 11-H ) :   0.9241 B(  2-C ,  3-C ) :   0.8973
B(  2-C ,  8-C ) :   0.9275 B(  2-C , 12-H ) :   0.9038 B(  3-C ,  4-C ) :   0.9385
B(  3-C , 13-H ) :   0.9329 B(  3-C , 14-H ) :   0.9010 B(  4-C ,  5-C ) :   1.8313
B(  4-C , 15-H ) :   0.9292 B(  5-C ,  6-C ) :   0.9467 B(  5-C , 16-H ) :   0.9247
B(  6-C ,  7-C ) :   0.9425 B(  6-C , 17-H ) :   0.9057 B(  6-C , 18-H ) :   0.9030
B(  7-C ,  8-C ) :   1.7843 B(  7-C , 19-H ) :   0.9273 B(  8-C , 20-H ) :   0.9331

MP2 TOTAL ENERGY:     -386.404584247 Eh
FINAL SINGLE POINT ENERGY      -386.404584246963

DIPOLE MOMENT
-------------
                                X             Y             Z
Electronic contribution:     -0.19788       1.91302       0.15153
Nuclear contribution   :      0.71062      -2.12554      -0.25796
                        -----------------------------------------
Total Dipole Moment    :      0.51273      -0.21252      -0.10643
                        -----------------------------------------
Magnitude (a.u.)       :      0.56515
Magnitude (Debye)      :      1.43649

                             ****ORCA TERMINATED NORMALLY****
TOTAL RUN TIME: 0 days 0 hours 28 minutes 24 seconds 965 msec
