                         Program Version 3.0.3 - RELEASE   -
|  1> ! RI-MP2 RIJK def2-TZVP def2-TZVP/C def2-TZVP/JK TIGHTSCF
|  2> % maxcore 2000
|  3> % mp2 density relaxed end
|  4> *xyz 0 1
|  5>  C        0.2312718297     1.4786553255    -0.1660526691
|  6>  C       -0.0856224249     0.0065480267     0.1223703842
|  7>  C        0.5495428645    -0.5126626124     1.3813329546
|  8>  C        0.5433925620     0.1143290350     2.7720453666
|  9>  C        1.7929492793    -0.7492775705     2.9960716214
| 10>  C        1.2992655368    -2.2158527428     2.9720032247
| 11>  O        0.2256344292    -2.6209985806     3.7879239316
| 12>  C        0.9801947210    -1.9375620581     1.5249714543
| 13>  N        2.0223698144    -0.8378614162     1.4553111425
| 14>  H        1.3124106700     1.6347103226    -0.2274837265
| 15>  H       -0.2144564771     1.7934687654    -1.1142264150
| 16>  H       -0.1608017872     2.1351211987     0.6174483988
| 17>  H       -1.1721798187    -0.1387109268     0.1900870183
| 18>  H        0.2567195765    -0.6124065706    -0.7158489648
| 19>  H        0.7966152372     1.1762527514     2.7261621926
| 20>  H       -0.3166152408    -0.0489066258     3.4273209052
| 21>  H        2.6101545184    -0.4301785618     3.6407174264
| 22>  H        2.1508054880    -2.9050267836     3.0425840085
| 23>  H        0.5766301574    -2.9081609431     4.6366299314
| 24>  H        0.8666536345    -2.6556950431     0.7205621444
| 25> *
| 26>
| 27>                          ****END OF INPUT****

CARTESIAN COORDINATES (ANGSTROEM)
---------------------------------
  C      0.231272    1.478655   -0.166053
  C     -0.085622    0.006548    0.122370
  C      0.549543   -0.512663    1.381333
  C      0.543393    0.114329    2.772045
  C      1.792949   -0.749278    2.996072
  C      1.299266   -2.215853    2.972003
  O      0.225634   -2.620999    3.787924
  C      0.980195   -1.937562    1.524971
  N      2.022370   -0.837861    1.455311
  H      1.312411    1.634710   -0.227484
  H     -0.214456    1.793469   -1.114226
  H     -0.160802    2.135121    0.617448
  H     -1.172180   -0.138711    0.190087
  H      0.256720   -0.612407   -0.715849
  H      0.796615    1.176253    2.726162
  H     -0.316615   -0.048907    3.427321
  H      2.610155   -0.430179    3.640717
  H      2.150805   -2.905027    3.042584
  H      0.576630   -2.908161    4.636630
  H      0.866654   -2.655695    0.720562

 Total Charge           Charge          ....    0
 Multiplicity           Mult            ....    1
 Number of Electrons    NEL             ....   68
 Basis Dimension        Dim             ....  345

ORBITAL ENERGIES
----------------

  NO   OCC          E(Eh)            E(eV)
   0   2.0000     -20.564202      -559.5804
   1   2.0000     -15.558633      -423.3719
   2   2.0000     -11.289915      -307.2142
   3   2.0000     -11.265111      -306.5393
   4   2.0000     -11.262552      -306.4696
   5   2.0000     -11.256078      -306.2935
   6   2.0000     -11.226383      -305.4854
   7   2.0000     -11.226244      -305.4816
   8   2.0000     -11.212265      -305.1012
   9   2.0000      -1.375674       -37.4340
  10   2.0000      -1.308268       -35.5998
  11   2.0000      -1.050043       -28.5731
  12   2.0000      -0.995538       -27.0900
  13   2.0000      -0.966663       -26.3042
  14   2.0000      -0.910114       -24.7655
  15   2.0000      -0.842174       -22.9167
  16   2.0000      -0.748421       -20.3656
  17   2.0000      -0.726088       -19.7579
  18   2.0000      -0.699550       -19.0357
  19   2.0000      -0.686210       -18.6727
  20   2.0000      -0.635163       -17.2837
  21   2.0000      -0.614040       -16.7089
  22   2.0000      -0.599765       -16.3204
  23   2.0000      -0.568921       -15.4811
  24   2.0000      -0.547597       -14.9009
  25   2.0000      -0.527144       -14.3443
  26   2.0000      -0.519802       -14.1445
  27   2.0000      -0.507818       -13.8184
  28   2.0000      -0.487377       -13.2622
  29   2.0000      -0.468371       -12.7450
  30   2.0000      -0.444942       -12.1075
  31   2.0000      -0.421993       -11.4830
  32   2.0000      -0.401909       -10.9365
  33   2.0000      -0.375025       -10.2049
  34   0.0000       0.129869         3.5339
  35   0.0000       0.146515         3.9869
  36   0.0000       0.165479         4.5029
  37   0.0000       0.172138         4.6841
  38   0.0000       0.185595         5.0503

MULLIKEN ATOMIC CHARGES
-----------------------
   0 C :   -0.423194
   1 C :   -0.211846
   2 C :    0.057421
   3 C :   -0.148698
   4 C :   -0.059827
   5 C :    0.043771
   6 O :   -0.456084
   7 C :   -0.126403
   8 N :   -0.241696
   9 H :    0.144369
  10 H :    0.134749
  11 H :    0.125996
  12 H :    0.118865
  13 H :    0.116851
  14 H :    0.123885
  15 H :    0.117804
  16 H :    0.138063
  17 H :    0.096675
  18 H :    0.317272
  19 H :    0.132025
Sum of atomic charges:   -0.0000000

LOEWDIN ATOMIC CHARGES
----------------------
   0 C :   -0.311531
   1 C :   -0.252957
   2 C :   -0.244523
   3 C :   -0.186396
   4 C :   -0.180564
   5 C :   -0.318581
   6 O :   -0.010479
   7 C :   -0.170885
   8 N :    0.157978
   9 H :    0.126819
  10 H :    0.121405
  11 H :    0.119744
  12 H :    0.145641
  13 H :    0.148414
  14 H :    0.142594
  15 H :    0.133130
  16 H :    0.126373
  17 H :    0.140469
  18 H :    0.175704
  19 H :    0.137645

  Mayer bond orders larger than 0.1
B(  0-C ,  1-C ) :   0.9174 B(  0-C ,  9-H ) :   0.9370 B(  0-C , 10-H ) :   0.9393
B(  0-C , 11-H ) :   0.9383 B(  1-C ,  2-C ) :   0.8935 B(  1-C , 12-H ) :   0.9384
B(  1-C , 13-H ) :   0.9256 B(  2-C ,  3-C ) :   0.9276 B(  2-C ,  7-C ) :   0.9161
B(  2-C ,  8-N ) :   0.8257 B(  3-C ,  4-C ) :   0.9581 B(  3-C , 14-H ) :   0.9240
B(  3-C , 15-H ) :   0.8842 B(  4-C ,  5-C ) :   0.9294 B(  4-C ,  8-N ) :   0.9464
B(  4-C , 16-H ) :   0.9033 B(  5-C ,  6-O ) :   1.1617 B(  5-C ,  7-C ) :   0.9219
B(  5-C , 17-H ) :   0.9387 B(  6-O , 18-H ) :   0.8424 B(  7-C ,  8-N ) :   0.9211
B(  7-C , 19-H ) :   0.9036

MP2 TOTAL ENERGY:     -402.412548891 Eh
FINAL SINGLE POINT ENERGY      -402.412548891292

DIPOLE MOMENT
-------------
                                X             Y             Z
Electronic contribution:      2.10078      -5.72732       4.20879
Nuclear contribution   :     -2.16053       5.64618      -3.65318
                        -----------------------------------------
Total Dipole Moment    :     -0.05975      -0.08114       0.55562
                        -----------------------------------------
Magnitude (a.u.)       :      0.56468
Magnitude (Debye)      :      1.43531

                             ****ORCA TERMINATED NORMALLY****
TOTAL RUN TIME: 0 days 0 hours 19 minutes 0 seconds 539 msec
