                         Program Version 3.0.3 - RELEASE   -
|  1> ! RI-MP2 RIJK def2-TZVP def2-TZVP/C def2-TZVP/JK TIGHTSCF
|  2> % maxcore 2000
|  3> % mp2 density relaxed end
|  4> *xyz 0 1
|  5>  C        0.0040442082     1.5351693494    -0.0379158857
|  6>  C        1.2808116983     0.7093458235    -0.0739593307
|  7>  C        2.2572935718     0.4685990305     1.0561653995
|  8>  C        2.5577539611    -1.0629969086     1.2375953963
|  9>  C        1.7833062954    -2.0710723206     0.3406404986
| 10>  C        0.2245744480    -1.9995129669     0.3106370662
| 11>  C       -0.3220266272    -0.8697691574     1.2300615224
| 12>  C       -0.0619360681     0.0425998465     0.0280464817
| 13>  C       -0.3120910366    -1.1517372310    -0.8944444033
| 14>  H       -0.2432351978     2.0725716154     0.8739700745
| 15>  H       -0.2814741886     2.0559108798    -0.9469333628
| 16>  H        1.7265100536     0.6459640971    -1.0652482865
| 17>  H        3.1911108145     1.0149876002     0.8845682256
| 18>  H        1.8463809536     0.8697195995     1.9886107566
| 19>  H        3.6238167845    -1.2453446009     1.0616559681
| 20>  H        2.3904136635    -1.3333464560     2.2864318328
| 21>  H        2.1571648207    -1.9936336128    -0.6876336434
| 22>  H        2.0791367767    -3.0700612146     0.6810625635
| 23>  H       -0.2142975793    -2.9936202195     0.4301809446
| 24>  H       -1.3950858870    -0.9887400947     1.4149709901
| 25>  H        0.1784383931    -0.6721653510     2.1793021791
| 26>  H        0.2402142579    -1.1937506790    -1.8384342148
| 27>  H       -1.3735722662    -1.3517141791    -1.0807345225
| 28> *
| 29>
| 30>                          ****END OF INPUT****

CARTESIAN COORDINATES (ANGSTROEM)
---------------------------------
  C      0.004044    1.535169   -0.037916
  C      1.280812    0.709346   -0.073959
  C      2.257294    0.468599    1.056165
  C      2.557754   -1.062997    1.237595
  C      1.783306   -2.071072    0.340640
  C      0.224574   -1.999513    0.310637
  C     -0.322027   -0.869769    1.230062
  C     -0.061936    0.042600    0.028046
  C     -0.312091   -1.151737   -0.894444
  H     -0.243235    2.072572    0.873970
  H     -0.281474    2.055911   -0.946933
  H      1.726510    0.645964   -1.065248
  H      3.191111    1.014988    0.884568
  H      1.846381    0.869720    1.988611
  H      3.623817   -1.245345    1.061656
  H      2.390414   -1.333346    2.286432
  H      2.157165   -1.993634   -0.687634
  H      2.079137   -3.070061    0.681063
  H     -0.214298   -2.993620    0.430181
  H     -1.395086   -0.988740    1.414971
  H      0.178438   -0.672165    2.179302
  H      0.240214   -1.193751   -1.838434
  H     -1.373572   -1.351714   -1.080735

 Total Charge           Charge          ....    0
 Multiplicity           Mult            ....    1
 Number of Electrons    NEL             ....   68
 Basis Dimension        Dim             ....  363

ORBITAL ENERGIES
----------------

  NO   OCC          E(Eh)            E(eV)
   0   2.0000     -11.226252      -305.4818
   1   2.0000     -11.225364      -305.4577
   2   2.0000     -11.221353      -305.3485
   3   2.0000     -11.217887      -305.2542
   4   2.0000     -11.217523      -305.2443
   5   2.0000     -11.217110      -305.2331
   6   2.0000     -11.216657      -305.2208
   7   2.0000     -11.215504      -305.1894
   8   2.0000     -11.214791      -305.1700
   9   2.0000      -1.178972       -32.0815
  10   2.0000      -1.074863       -29.2485
  11   2.0000      -1.039335       -28.2817
  12   2.0000      -0.932689       -25.3798
  13   2.0000      -0.895333       -24.3633
  14   2.0000      -0.852459       -23.1966
  15   2.0000      -0.798431       -21.7264
  16   2.0000      -0.732959       -19.9448
  17   2.0000      -0.709538       -19.3075
  18   2.0000      -0.662075       -18.0160
  19   2.0000      -0.641221       -17.4485
  20   2.0000      -0.615353       -16.7446
  21   2.0000      -0.598055       -16.2739
  22   2.0000      -0.559635       -15.2284
  23   2.0000      -0.547979       -14.9113
  24   2.0000      -0.531296       -14.4573
  25   2.0000      -0.509940       -13.8762
  26   2.0000      -0.505809       -13.7638
  27   2.0000      -0.474623       -12.9151
  28   2.0000      -0.457350       -12.4451
  29   2.0000      -0.445548       -12.1240
  30   2.0000      -0.438224       -11.9247
  31   2.0000      -0.427466       -11.6319
  32   2.0000      -0.386550       -10.5185
  33   2.0000      -0.368210       -10.0195
  34   0.0000       0.139261         3.7895
  35   0.0000       0.159677         4.3450
  36   0.0000       0.160388         4.3644
  37   0.0000       0.162598         4.4245
  38   0.0000       0.188261         5.1228

MULLIKEN ATOMIC CHARGES
-----------------------
   0 C :   -0.281464
   1 C :   -0.104049
   2 C :   -0.267118
   3 C :   -0.248889
   4 C :   -0.270026
   5 C :    0.014563
   6 C :   -0.269145
   7 C :    0.088229
   8 C :   -0.277452
   9 H :    0.123267
  10 H :    0.126911
  11 H :    0.099946
  12 H :    0.119085
  13 H :    0.122980
  14 H :    0.123209
  15 H :    0.117044
  16 H :    0.108427
  17 H :    0.123143
  18 H :    0.105918
  19 H :    0.111266
  20 H :    0.117186
  21 H :    0.110136
  22 H :    0.106834
Sum of atomic charges:   -0.0000000

LOEWDIN ATOMIC CHARGES
----------------------
   0 C :   -0.190223
   1 C :   -0.188926
   2 C :   -0.248028
   3 C :   -0.257310
   4 C :   -0.237534
   5 C :   -0.202800
   6 C :   -0.176745
   7 C :   -0.221236
   8 C :   -0.181833
   9 H :    0.137551
  10 H :    0.134657
  11 H :    0.149593
  12 H :    0.135854
  13 H :    0.139244
  14 H :    0.135659
  15 H :    0.133457
  16 H :    0.138014
  17 H :    0.138873
  18 H :    0.133154
  19 H :    0.138791
  20 H :    0.129928
  21 H :    0.125707
  22 H :    0.134153

  Mayer bond orders larger than 0.1
B(  0-C ,  1-C ) :   0.9350 B(  0-C ,  7-C ) :   0.8911 B(  0-C ,  9-H ) :   0.9073
B(  0-C , 10-H ) :   0.9139 B(  1-C ,  2-C ) :   0.9232 B(  1-C ,  7-C ) :   0.8169
B(  1-C , 11-H ) :   0.9258 B(  2-C ,  3-C ) :   0.9118 B(  2-C , 12-H ) :   0.9307
B(  2-C , 13-H ) :   0.9296 B(  3-C ,  4-C ) :   0.9496 B(  3-C , 14-H ) :   0.9320
B(  3-C , 15-H ) :   0.9394 B(  4-C ,  5-C ) :   0.8787 B(  4-C , 16-H ) :   0.9311
B(  4-C , 17-H ) :   0.9264 B(  5-C ,  6-C ) :   0.9218 B(  5-C ,  8-C ) :   0.9311
B(  5-C , 18-H ) :   0.9284 B(  6-C ,  7-C ) :   0.9054 B(  6-C , 19-H ) :   0.9138
B(  6-C , 20-H ) :   0.9261 B(  7-C ,  8-C ) :   0.8806 B(  8-C , 21-H ) :   0.9230
B(  8-C , 22-H ) :   0.9117

MP2 TOTAL ENERGY:     -350.480654092 Eh
FINAL SINGLE POINT ENERGY      -350.480654091891

DIPOLE MOMENT
-------------
                                X             Y             Z
Electronic contribution:     -1.90072       1.01333      -0.97595
Nuclear contribution   :      1.98844      -1.11178       1.00322
                        -----------------------------------------
Total Dipole Moment    :      0.08772      -0.09845       0.02727
                        -----------------------------------------
Magnitude (a.u.)       :      0.13465
Magnitude (Debye)      :      0.34226

                             ****ORCA TERMINATED NORMALLY****
TOTAL RUN TIME: 0 days 0 hours 23 minutes 21 seconds 923 msec
