                         Program Version 3.0.3 - RELEASE   -
|  1> ! RI-MP2 RIJK def2-TZVP def2-TZVP/C def2-TZVP/JK TIGHTSCF
|  2> % maxcore 2000
|  3> % mp2 density relaxed end
|  4> *xyz 0 1
|  5>  C        0.0009598117     1.4298183421     0.1713302713
|  6>  C        1.4597445548     1.9485126451    -0.0167446077
|  7>  C        2.2283998679     0.6588186892    -0.1275524274
|  8>  C        3.4459563521     0.3263007259     0.2833547629
|  9>  C        3.8168432720    -1.1363959703     0.3621010271
| 10>  O        2.6811178370    -1.9271210234     0.6758477263
| 11>  C        1.6615461000    -1.8174859086    -0.2948399213
| 12>  C        1.2264794916    -0.3707675244    -0.5778323772
| 13>  O        0.0434924576     0.0004330668     0.1279100584
| 14>  H       -0.4270505901     1.7182548832     1.1354397345
| 15>  H       -0.6561886780     1.8119064370    -0.6224115721
| 16>  H        1.5398423856     2.5510496503    -0.9288385288
| 17>  H        1.7992514759     2.5667983824     0.8174095316
| 18>  H        4.1473130013     1.0629933791     0.6653673272
| 19>  H        4.2898108590    -1.4968534355    -0.5697749884
| 20>  H        4.5318600096    -1.3022650170     1.1734722574
| 21>  H        1.9980514144    -2.2715945062    -1.2419966507
| 22>  H        0.8058083237    -2.3857960688     0.0776039376
| 23>  H        1.0445527540    -0.2726201869    -1.6642209809
| 24> *
| 25>
| 26>                          ****END OF INPUT****

CARTESIAN COORDINATES (ANGSTROEM)
---------------------------------
  C      0.000960    1.429818    0.171330
  C      1.459745    1.948513   -0.016745
  C      2.228400    0.658819   -0.127552
  C      3.445956    0.326301    0.283355
  C      3.816843   -1.136396    0.362101
  O      2.681118   -1.927121    0.675848
  C      1.661546   -1.817486   -0.294840
  C      1.226479   -0.370768   -0.577832
  O      0.043492    0.000433    0.127910
  H     -0.427051    1.718255    1.135440
  H     -0.656189    1.811906   -0.622412
  H      1.539842    2.551050   -0.928839
  H      1.799251    2.566798    0.817410
  H      4.147313    1.062993    0.665367
  H      4.289811   -1.496853   -0.569775
  H      4.531860   -1.302265    1.173472
  H      1.998051   -2.271595   -1.241997
  H      0.805808   -2.385796    0.077604
  H      1.044553   -0.272620   -1.664221

 Total Charge           Charge          ....    0
 Multiplicity           Mult            ....    1
 Number of Electrons    NEL             ....   68
 Basis Dimension        Dim             ....  339

ORBITAL ENERGIES
----------------

  NO   OCC          E(Eh)            E(eV)
   0   2.0000     -20.553635      -559.2928
   1   2.0000     -20.553409      -559.2867
   2   2.0000     -11.282033      -306.9997
   3   2.0000     -11.280201      -306.9499
   4   2.0000     -11.278429      -306.9016
   5   2.0000     -11.274563      -306.7965
   6   2.0000     -11.237289      -305.7822
   7   2.0000     -11.235891      -305.7441
   8   2.0000     -11.228552      -305.5444
   9   2.0000      -1.385158       -37.6921
  10   2.0000      -1.369439       -37.2643
  11   2.0000      -1.097750       -29.8713
  12   2.0000      -1.027502       -27.9598
  13   2.0000      -1.010674       -27.5018
  14   2.0000      -0.880597       -23.9623
  15   2.0000      -0.872837       -23.7511
  16   2.0000      -0.814395       -22.1608
  17   2.0000      -0.717137       -19.5143
  18   2.0000      -0.688987       -18.7483
  19   2.0000      -0.680619       -18.5206
  20   2.0000      -0.657546       -17.8927
  21   2.0000      -0.630481       -17.1563
  22   2.0000      -0.618051       -16.8180
  23   2.0000      -0.602216       -16.3871
  24   2.0000      -0.570434       -15.5223
  25   2.0000      -0.552955       -15.0467
  26   2.0000      -0.534168       -14.5354
  27   2.0000      -0.527507       -14.3542
  28   2.0000      -0.492073       -13.3900
  29   2.0000      -0.486773       -13.2458
  30   2.0000      -0.458016       -12.4633
  31   2.0000      -0.419032       -11.4024
  32   2.0000      -0.414200       -11.2710
  33   2.0000      -0.354923        -9.6580
  34   0.0000       0.133261         3.6262
  35   0.0000       0.141972         3.8633
  36   0.0000       0.154666         4.2087
  37   0.0000       0.171011         4.6534
  38   0.0000       0.183794         5.0013

MULLIKEN ATOMIC CHARGES
-----------------------
   0 C :   -0.033176
   1 C :   -0.228558
   2 C :   -0.086203
   3 C :   -0.220564
   4 C :   -0.007245
   5 O :   -0.302052
   6 C :   -0.079252
   7 C :    0.138702
   8 O :   -0.320573
   9 H :    0.114565
  10 H :    0.092714
  11 H :    0.129231
  12 H :    0.127791
  13 H :    0.129594
  14 H :    0.096120
  15 H :    0.131891
  16 H :    0.096773
  17 H :    0.135507
  18 H :    0.084733
Sum of atomic charges:    0.0000000

LOEWDIN ATOMIC CHARGES
----------------------
   0 C :   -0.282771
   1 C :   -0.217406
   2 C :   -0.157322
   3 C :   -0.143555
   4 C :   -0.300868
   5 O :    0.163661
   6 C :   -0.285565
   7 C :   -0.276614
   8 O :    0.162478
   9 H :    0.124460
  10 H :    0.117134
  11 H :    0.143305
  12 H :    0.142792
  13 H :    0.143407
  14 H :    0.124253
  15 H :    0.135723
  16 H :    0.122278
  17 H :    0.139938
  18 H :    0.144671

  Mayer bond orders larger than 0.1
B(  0-C ,  1-C ) :   0.9533 B(  0-C ,  8-O ) :   0.9421 B(  0-C ,  9-H ) :   0.9227
B(  0-C , 10-H ) :   0.9365 B(  1-C ,  2-C ) :   0.9059 B(  1-C , 11-H ) :   0.9165
B(  1-C , 12-H ) :   0.9189 B(  2-C ,  3-C ) :   1.7573 B(  2-C ,  7-C ) :   0.9340
B(  3-C ,  4-C ) :   0.9342 B(  3-C , 13-H ) :   0.9135 B(  4-C ,  5-O ) :   0.9351
B(  4-C , 14-H ) :   0.9226 B(  4-C , 15-H ) :   0.9309 B(  5-O ,  6-C ) :   0.9613
B(  6-C ,  7-C ) :   0.8989 B(  6-C , 16-H ) :   0.9416 B(  6-C , 17-H ) :   0.9253
B(  7-C ,  8-O ) :   0.9209 B(  7-C , 18-H ) :   0.9243

MP2 TOTAL ENERGY:     -422.314528284 Eh
FINAL SINGLE POINT ENERGY      -422.314528284153

DIPOLE MOMENT
-------------
                                X             Y             Z
Electronic contribution:     -0.44910      -2.32286       1.27004
Nuclear contribution   :      0.84704       3.05061      -1.76735
                        -----------------------------------------
Total Dipole Moment    :      0.39794       0.72775      -0.49731
                        -----------------------------------------
Magnitude (a.u.)       :      0.96711
Magnitude (Debye)      :      2.45819

                             ****ORCA TERMINATED NORMALLY****
TOTAL RUN TIME: 0 days 0 hours 18 minutes 36 seconds 943 msec
