                         Program Version 3.0.3 - RELEASE   -
|  1> ! RI-MP2 RIJK def2-TZVP def2-TZVP/C def2-TZVP/JK TIGHTSCF
|  2> % maxcore 2000
|  3> % mp2 density relaxed end
|  4> *xyz 0 1
|  5>  O       -0.0114836479    -0.0637457994    -0.0899896129
|  6>  C       -0.0512637667     1.1502217664    -0.0474058833
|  7>  C        1.1869663090     1.9224649678    -0.0184373635
|  8>  C        2.2237354247     2.5460548954     0.0050145365
|  9>  C        3.3903614129     3.2535481756     0.0316174173
| 10>  N        4.3804021433     3.8606578338     0.0544445332
| 11>  C       -1.3039679784     1.9402045698    -0.0214275060
| 12>  C       -2.4958120970     1.3693500732    -0.7864882547
| 13>  C       -2.4980112561     1.3170781304     0.6979709392
| 14>  H       -1.1917249929     3.0167422808     0.0166375433
| 15>  H       -3.1322848487     2.0854727604    -1.2924558485
| 16>  H       -2.3057294540     0.4459147500    -1.3210801359
| 17>  H       -2.3094281835     0.3583149830     1.1668747833
| 18>  H       -3.1361060849     1.9958155528     1.2512255719
| 19> *
| 20>
| 21>                          ****END OF INPUT****

CARTESIAN COORDINATES (ANGSTROEM)
---------------------------------
  O     -0.011484   -0.063746   -0.089990
  C     -0.051264    1.150222   -0.047406
  C      1.186966    1.922465   -0.018437
  C      2.223735    2.546055    0.005015
  C      3.390361    3.253548    0.031617
  N      4.380402    3.860658    0.054445
  C     -1.303968    1.940205   -0.021428
  C     -2.495812    1.369350   -0.786488
  C     -2.498011    1.317078    0.697971
  H     -1.191725    3.016742    0.016638
  H     -3.132285    2.085473   -1.292456
  H     -2.305729    0.445915   -1.321080
  H     -2.309428    0.358315    1.166875
  H     -3.136106    1.995816    1.251226

 Total Charge           Charge          ....    0
 Multiplicity           Mult            ....    1
 Number of Electrons    NEL             ....   62
 Basis Dimension        Dim             ....  309

ORBITAL ENERGIES
----------------

  NO   OCC          E(Eh)            E(eV)
   0   2.0000     -20.580733      -560.0302
   1   2.0000     -15.614900      -424.9030
   2   2.0000     -11.386642      -309.8463
   3   2.0000     -11.318002      -307.9785
   4   2.0000     -11.312267      -307.8224
   5   2.0000     -11.307366      -307.6891
   6   2.0000     -11.272068      -306.7286
   7   2.0000     -11.264407      -306.5201
   8   2.0000     -11.263680      -306.5003
   9   2.0000      -1.424104       -38.7519
  10   2.0000      -1.252352       -34.0782
  11   2.0000      -1.179333       -32.0913
  12   2.0000      -1.113947       -30.3120
  13   2.0000      -0.988767       -26.9057
  14   2.0000      -0.902648       -24.5623
  15   2.0000      -0.853778       -23.2325
  16   2.0000      -0.817494       -22.2451
  17   2.0000      -0.745640       -20.2899
  18   2.0000      -0.682876       -18.5820
  19   2.0000      -0.664924       -18.0935
  20   2.0000      -0.598266       -16.2796
  21   2.0000      -0.596582       -16.2338
  22   2.0000      -0.592454       -16.1215
  23   2.0000      -0.554745       -15.0954
  24   2.0000      -0.550743       -14.9865
  25   2.0000      -0.538656       -14.6576
  26   2.0000      -0.489316       -13.3150
  27   2.0000      -0.460076       -12.5193
  28   2.0000      -0.442717       -12.0469
  29   2.0000      -0.428327       -11.6554
  30   2.0000      -0.427227       -11.6254
  31   0.0000       0.027533         0.7492
  32   0.0000       0.081670         2.2223
  33   0.0000       0.134203         3.6519
  34   0.0000       0.148240         4.0338
  35   0.0000       0.157778         4.2934

MULLIKEN ATOMIC CHARGES
-----------------------
   0 O :   -0.276646
   1 C :    0.056779
   2 C :    0.052644
   3 C :    0.282045
   4 C :   -0.214703
   5 N :   -0.033121
   6 C :   -0.147328
   7 C :   -0.241456
   8 C :   -0.241457
   9 H :    0.147948
  10 H :    0.148754
  11 H :    0.158895
  12 H :    0.158893
  13 H :    0.148754
Sum of atomic charges:    0.0000000

LOEWDIN ATOMIC CHARGES
----------------------
   0 O :    0.182226
   1 C :   -0.318429
   2 C :    0.059553
   3 C :   -0.023524
   4 C :   -0.164593
   5 N :    0.116374
   6 C :   -0.185203
   7 C :   -0.195106
   8 C :   -0.195126
   9 H :    0.157445
  10 H :    0.138027
  11 H :    0.145164
  12 H :    0.145165
  13 H :    0.138026

  Mayer bond orders larger than 0.1
B(  0-O ,  1-C ) :   1.9617 B(  1-C ,  2-C ) :   0.9074 B(  1-C ,  3-C ) :  -0.1117
B(  1-C ,  6-C ) :   1.0539 B(  2-C ,  3-C ) :   2.5848 B(  2-C ,  5-N ) :   0.1110
B(  2-C ,  6-C ) :  -0.1233 B(  3-C ,  4-C ) :   0.9967 B(  4-C ,  5-N ) :   2.7337
B(  6-C ,  7-C ) :   0.8309 B(  6-C ,  8-C ) :   0.8309 B(  6-C ,  9-H ) :   0.9205
B(  7-C ,  8-C ) :   0.9243 B(  7-C , 10-H ) :   0.9298 B(  7-C , 11-H ) :   0.9237
B(  8-C , 12-H ) :   0.9237 B(  8-C , 13-H ) :   0.9298

MP2 TOTAL ENERGY:     -398.821826529 Eh
FINAL SINGLE POINT ENERGY      -398.821826528804

DIPOLE MOMENT
-------------
                                X             Y             Z
Electronic contribution:     11.71615       1.62063       0.07423
Nuclear contribution   :    -13.45742      -1.39159      -0.06877
                        -----------------------------------------
Total Dipole Moment    :     -1.74127       0.22904       0.00546
                        -----------------------------------------
Magnitude (a.u.)       :      1.75628
Magnitude (Debye)      :      4.46410

                             ****ORCA TERMINATED NORMALLY****
TOTAL RUN TIME: 0 days 0 hours 12 minutes 51 seconds 269 msec
