                         Program Version 3.0.3 - RELEASE   -
|  1> ! RI-MP2 RIJK def2-TZVP def2-TZVP/C def2-TZVP/JK TIGHTSCF
|  2> % maxcore 2000
|  3> % mp2 density relaxed end
|  4> *xyz 0 1
|  5>  C        0.1497010653     1.4122536805     0.1114623533
|  6>  O       -0.0612388377     0.0071950519    -0.0066030867
|  7>  C        0.5688051915    -0.5580201133    -1.0880903781
|  8>  C       -0.0399646561    -0.9667619974    -2.2570651877
|  9>  C       -1.4707585477    -0.8902397939    -2.6669258871
| 10>  N        0.9471949671    -1.5184278330    -3.0333092169
| 11>  C        2.1657640448    -1.4747191855    -2.3772103359
| 12>  C        1.9593616100    -0.8772976116    -1.1551680891
| 13>  N        2.8909542040    -0.5491208933    -0.1489017638
| 14>  H        1.2170897459     1.6504017549     0.1951798201
| 15>  H       -0.2641667050     1.9475552862    -0.7532901353
| 16>  H       -0.3684855489     1.7347751330     1.0183205046
| 17>  H       -1.6213400810    -0.2626492740    -3.5546040064
| 18>  H       -1.8935965047    -1.8783311433    -2.8890738545
| 19>  H       -2.0504023425    -0.4587495955    -1.8475807465
| 20>  H        0.8002387547    -1.9283785083    -3.9375383696
| 21>  H        3.0616219837    -1.8637176682    -2.8325931326
| 22>  H        3.7203105187    -1.1286199710    -0.1891683101
| 23>  H        2.4716142680    -0.6503247983     0.7688800624
| 24> *
| 25>
| 26>                          ****END OF INPUT****

CARTESIAN COORDINATES (ANGSTROEM)
---------------------------------
  C      0.149701    1.412254    0.111462
  O     -0.061239    0.007195   -0.006603
  C      0.568805   -0.558020   -1.088090
  C     -0.039965   -0.966762   -2.257065
  C     -1.470759   -0.890240   -2.666926
  N      0.947195   -1.518428   -3.033309
  C      2.165764   -1.474719   -2.377210
  C      1.959362   -0.877298   -1.155168
  N      2.890954   -0.549121   -0.148902
  H      1.217090    1.650402    0.195180
  H     -0.264167    1.947555   -0.753290
  H     -0.368486    1.734775    1.018321
  H     -1.621340   -0.262649   -3.554604
  H     -1.893597   -1.878331   -2.889074
  H     -2.050402   -0.458750   -1.847581
  H      0.800239   -1.928379   -3.937538
  H      3.061622   -1.863718   -2.832593
  H      3.720311   -1.128620   -0.189168
  H      2.471614   -0.650325    0.768880

 Total Charge           Charge          ....    0
 Multiplicity           Mult            ....    1
 Number of Electrons    NEL             ....   68
 Basis Dimension        Dim             ....  339

ORBITAL ENERGIES
----------------

  NO   OCC          E(Eh)            E(eV)
   0   2.0000     -20.558926      -559.4368
   1   2.0000     -15.587305      -424.1521
   2   2.0000     -15.548838      -423.1054
   3   2.0000     -11.264839      -306.5318
   4   2.0000     -11.249298      -306.1090
   5   2.0000     -11.247616      -306.0632
   6   2.0000     -11.241273      -305.8906
   7   2.0000     -11.232089      -305.6407
   8   2.0000     -11.225980      -305.4744
   9   2.0000      -1.379049       -37.5258
  10   2.0000      -1.277888       -34.7731
  11   2.0000      -1.186961       -32.2988
  12   2.0000      -1.025587       -27.9076
  13   2.0000      -1.006851       -27.3978
  14   2.0000      -0.930610       -25.3232
  15   2.0000      -0.895377       -24.3644
  16   2.0000      -0.782969       -21.3057
  17   2.0000      -0.746958       -20.3258
  18   2.0000      -0.705916       -19.2090
  19   2.0000      -0.650642       -17.7049
  20   2.0000      -0.642959       -17.4958
  21   2.0000      -0.628127       -17.0922
  22   2.0000      -0.613630       -16.6977
  23   2.0000      -0.597445       -16.2573
  24   2.0000      -0.582650       -15.8547
  25   2.0000      -0.565154       -15.3786
  26   2.0000      -0.539042       -14.6681
  27   2.0000      -0.534825       -14.5533
  28   2.0000      -0.521934       -14.2025
  29   2.0000      -0.496519       -13.5110
  30   2.0000      -0.465883       -12.6773
  31   2.0000      -0.429146       -11.6777
  32   2.0000      -0.304762        -8.2930
  33   2.0000      -0.271820        -7.3966
  34   0.0000       0.133481         3.6322
  35   0.0000       0.144091         3.9209
  36   0.0000       0.158004         4.2995
  37   0.0000       0.174094         4.7373
  38   0.0000       0.180836         4.9208

MULLIKEN ATOMIC CHARGES
-----------------------
   0 C :   -0.203461
   1 O :   -0.353584
   2 C :    0.067406
   3 C :    0.104298
   4 C :   -0.446407
   5 N :   -0.267930
   6 C :   -0.183950
   7 C :    0.144014
   8 N :   -0.549090
   9 H :    0.139661
  10 H :    0.114486
  11 H :    0.132052
  12 H :    0.139928
  13 H :    0.138280
  14 H :    0.161940
  15 H :    0.237795
  16 H :    0.133954
  17 H :    0.234863
  18 H :    0.255745
Sum of atomic charges:    0.0000000

LOEWDIN ATOMIC CHARGES
----------------------
   0 C :   -0.332142
   1 O :    0.187529
   2 C :   -0.268485
   3 C :   -0.245923
   4 C :   -0.282533
   5 N :    0.185415
   6 C :   -0.239826
   7 C :   -0.269816
   8 N :   -0.105654
   9 H :    0.108742
  10 H :    0.103430
  11 H :    0.109925
  12 H :    0.127627
  13 H :    0.128280
  14 H :    0.141593
  15 H :    0.188938
  16 H :    0.128754
  17 H :    0.163970
  18 H :    0.170177

  Mayer bond orders larger than 0.1
B(  0-C ,  1-O ) :   0.8655 B(  0-C ,  9-H ) :   0.9303 B(  0-C , 10-H ) :   0.9327
B(  0-C , 11-H ) :   0.9390 B(  1-O ,  2-C ) :   0.9794 B(  2-C ,  3-C ) :   1.4779
B(  2-C ,  7-C ) :   1.2518 B(  3-C ,  4-C ) :   0.8412 B(  3-C ,  5-N ) :   1.1242
B(  4-C , 12-H ) :   0.9359 B(  4-C , 13-H ) :   0.9381 B(  4-C , 14-H ) :   0.9482
B(  5-N ,  6-C ) :   1.1145 B(  5-N , 15-H ) :   0.8761 B(  6-C ,  7-C ) :   1.4716
B(  6-C , 16-H ) :   0.9127 B(  7-C ,  8-N ) :   0.9638 B(  8-N , 17-H ) :   0.8856
B(  8-N , 18-H ) :   0.8713

MP2 TOTAL ENERGY:     -418.515279322 Eh
FINAL SINGLE POINT ENERGY      -418.515279322374

DIPOLE MOMENT
-------------
                                X             Y             Z
Electronic contribution:      2.62017      -2.98627      -0.21474
Nuclear contribution   :     -2.52278       2.69513      -0.33797
                        -----------------------------------------
Total Dipole Moment    :      0.09738      -0.29114      -0.55271
                        -----------------------------------------
Magnitude (a.u.)       :      0.63225
Magnitude (Debye)      :      1.60704

                             ****ORCA TERMINATED NORMALLY****
TOTAL RUN TIME: 0 days 0 hours 18 minutes 20 seconds 112 msec
