                         Program Version 3.0.3 - RELEASE   -
|  1> ! RI-MP2 RIJK def2-TZVP def2-TZVP/C def2-TZVP/JK TIGHTSCF
|  2> % maxcore 2000
|  3> % mp2 density relaxed end
|  4> *xyz 0 1
|  5>  C        0.0339240252     1.5529858828     0.0118004193
|  6>  C       -0.0079253190     0.0249943886     0.0578415162
|  7>  O        0.6886955414    -0.4745042113     1.1954245526
|  8>  C       -1.4317460201    -0.5384234269     0.0000718540
|  9>  C       -2.1974741883    -0.1864105304    -1.3028059676
| 10>  N       -3.1030380090    -1.3081923570    -1.4553413452
| 11>  C       -2.7455737312    -2.4404559674    -0.7666955249
| 12>  O       -3.3024114503    -3.5134175989    -0.8320311440
| 13>  C       -1.5137228677    -2.0736413277     0.0644769881
| 14>  H        1.0672732997     1.9010883067     0.0878184806
| 15>  H       -0.3933695881     1.9436851357    -0.9173303254
| 16>  H       -0.5342491604     1.9823933368     0.8468867601
| 17>  H        0.5534328749    -0.3744796077    -0.7974311437
| 18>  H        0.2723923685    -0.1047071974     1.9822917503
| 19>  H       -1.9999735151    -0.1211290232     0.8432137498
| 20>  H       -2.7410929583     0.7600842088    -1.2220407510
| 21>  H       -1.5055413378    -0.1003253587    -2.1558426247
| 22>  H       -3.8029121356    -1.3605282720    -2.1786665205
| 23>  H       -0.6379041720    -2.5426169881    -0.4002319436
| 24>  H       -1.5924079266    -2.4784158728     1.0736315897
| 25> *
| 26>
| 27>                          ****END OF INPUT****

CARTESIAN COORDINATES (ANGSTROEM)
---------------------------------
  C      0.033924    1.552986    0.011800
  C     -0.007925    0.024994    0.057842
  O      0.688696   -0.474504    1.195425
  C     -1.431746   -0.538423    0.000072
  C     -2.197474   -0.186411   -1.302806
  N     -3.103038   -1.308192   -1.455341
  C     -2.745574   -2.440456   -0.766696
  O     -3.302411   -3.513418   -0.832031
  C     -1.513723   -2.073641    0.064477
  H      1.067273    1.901088    0.087818
  H     -0.393370    1.943685   -0.917330
  H     -0.534249    1.982393    0.846887
  H      0.553433   -0.374480   -0.797431
  H      0.272392   -0.104707    1.982292
  H     -1.999974   -0.121129    0.843214
  H     -2.741093    0.760084   -1.222041
  H     -1.505541   -0.100325   -2.155843
  H     -3.802912   -1.360528   -2.178667
  H     -0.637904   -2.542617   -0.400232
  H     -1.592408   -2.478416    1.073632

 Total Charge           Charge          ....    0
 Multiplicity           Mult            ....    1
 Number of Electrons    NEL             ....   70
 Basis Dimension        Dim             ....  345

ORBITAL ENERGIES
----------------

  NO   OCC          E(Eh)            E(eV)
   0   2.0000     -20.565356      -559.6118
   1   2.0000     -20.512932      -558.1853
   2   2.0000     -15.581642      -423.9980
   3   2.0000     -11.343253      -308.6656
   4   2.0000     -11.295448      -307.3648
   5   2.0000     -11.281622      -306.9886
   6   2.0000     -11.250668      -306.1462
   7   2.0000     -11.237515      -305.7883
   8   2.0000     -11.232619      -305.6551
   9   2.0000      -1.377713       -37.4895
  10   2.0000      -1.372492       -37.3474
  11   2.0000      -1.249828       -34.0096
  12   2.0000      -1.085994       -29.5514
  13   2.0000      -1.014817       -27.6146
  14   2.0000      -0.967680       -26.3319
  15   2.0000      -0.879790       -23.9403
  16   2.0000      -0.810234       -22.0476
  17   2.0000      -0.789345       -21.4792
  18   2.0000      -0.698322       -19.0023
  19   2.0000      -0.683405       -18.5964
  20   2.0000      -0.661598       -18.0030
  21   2.0000      -0.633987       -17.2517
  22   2.0000      -0.619148       -16.8479
  23   2.0000      -0.605427       -16.4745
  24   2.0000      -0.589079       -16.0297
  25   2.0000      -0.583065       -15.8660
  26   2.0000      -0.560465       -15.2510
  27   2.0000      -0.556430       -15.1412
  28   2.0000      -0.531541       -14.4640
  29   2.0000      -0.509927       -13.8758
  30   2.0000      -0.490424       -13.3451
  31   2.0000      -0.475194       -12.9307
  32   2.0000      -0.453808       -12.3487
  33   2.0000      -0.410604       -11.1731
  34   2.0000      -0.392246       -10.6735
  35   0.0000       0.117659         3.2017
  36   0.0000       0.134420         3.6577
  37   0.0000       0.148807         4.0492
  38   0.0000       0.157570         4.2877
  39   0.0000       0.171439         4.6651

MULLIKEN ATOMIC CHARGES
-----------------------
   0 C :   -0.399291
   1 C :    0.076210
   2 O :   -0.461727
   3 C :   -0.129984
   4 C :   -0.146360
   5 N :   -0.295667
   6 C :    0.201910
   7 O :   -0.337803
   8 C :   -0.163896
   9 H :    0.154599
  10 H :    0.130559
  11 H :    0.119709
  12 H :    0.095568
  13 H :    0.311338
  14 H :    0.094534
  15 H :    0.131104
  16 H :    0.114814
  17 H :    0.237231
  18 H :    0.131576
  19 H :    0.135576
Sum of atomic charges:    0.0000000

LOEWDIN ATOMIC CHARGES
----------------------
   0 C :   -0.299645
   1 C :   -0.360186
   2 O :   -0.014456
   3 C :   -0.233873
   4 C :   -0.249313
   5 N :    0.111780
   6 C :   -0.447448
   7 O :    0.082537
   8 C :   -0.192499
   9 H :    0.129139
  10 H :    0.126875
  11 H :    0.122718
  12 H :    0.147105
  13 H :    0.175033
  14 H :    0.154577
  15 H :    0.129985
  16 H :    0.129122
  17 H :    0.181933
  18 H :    0.158154
  19 H :    0.148462

  Mayer bond orders larger than 0.1
B(  0-C ,  1-C ) :   0.9415 B(  0-C ,  9-H ) :   0.9405 B(  0-C , 10-H ) :   0.9324
B(  0-C , 11-H ) :   0.9210 B(  1-C ,  2-O ) :   0.9005 B(  1-C ,  3-C ) :   0.9463
B(  1-C , 12-H ) :   0.9080 B(  2-O , 13-H ) :   0.8429 B(  3-C ,  4-C ) :   0.9156
B(  3-C ,  8-C ) :   0.9163 B(  3-C , 14-H ) :   0.9074 B(  4-C ,  5-N ) :   0.8954
B(  4-C , 15-H ) :   0.9246 B(  4-C , 16-H ) :   0.9267 B(  5-N ,  6-C ) :   1.1542
B(  5-N , 17-H ) :   0.8655 B(  6-C ,  7-O ) :   2.0253 B(  6-C ,  8-C ) :   0.9054
B(  8-C , 18-H ) :   0.9032 B(  8-C , 19-H ) :   0.9237

MP2 TOTAL ENERGY:     -439.620703745 Eh
FINAL SINGLE POINT ENERGY      -439.620703745202

DIPOLE MOMENT
-------------
                                X             Y             Z
Electronic contribution:     -4.48994      -7.77341      -0.74064
Nuclear contribution   :      4.65222       9.61911       0.59624
                        -----------------------------------------
Total Dipole Moment    :      0.16228       1.84570      -0.14440
                        -----------------------------------------
Magnitude (a.u.)       :      1.85844
Magnitude (Debye)      :      4.72377

                             ****ORCA TERMINATED NORMALLY****
TOTAL RUN TIME: 0 days 0 hours 19 minutes 7 seconds 505 msec
