                         Program Version 3.0.3 - RELEASE   -
|  1> ! RI-MP2 RIJK def2-TZVP def2-TZVP/C def2-TZVP/JK TIGHTSCF
|  2> % maxcore 2000
|  3> % mp2 density relaxed end
|  4> *xyz 0 1
|  5>  C       -0.1431646614     1.5407328122     0.0753208193
|  6>  C        1.3644115615     1.2386097555     0.0101330686
|  7>  N        1.1844300995     0.1564185991     1.0488554566
|  8>  C        2.2982150078    -0.7997537391     0.7274687242
|  9>  C        2.1258899496    -0.9693812126    -0.7922306656
| 10>  O        2.9353855843    -0.4306997225    -1.8966209933
| 11>  C        1.7267339511     0.1694580469    -2.4592772850
| 12>  C        1.1180409399     0.1067342815    -1.0445930854
| 13>  C       -0.0022215993     0.0108859900     0.0210555349
| 14>  H       -0.5011400162     1.9623541693     1.0154001009
| 15>  H       -0.5951300694     2.0140479102    -0.7976938422
| 16>  H        2.2099570237     1.9283629938     0.0573699781
| 17>  H        3.2417177401    -0.3332531801     1.0247561876
| 18>  H        2.1785963108    -1.7375689646     1.2753279015
| 19>  H        1.8122757081    -1.9870928332    -1.0622438505
| 20>  H        1.9148210460     1.1562090364    -2.8914157217
| 21>  H        1.2675558772    -0.4921230950    -3.2047185254
| 22>  H       -0.7613992134    -0.7630111077     0.1448616475
| 23> *
| 24>
| 25>                          ****END OF INPUT****

CARTESIAN COORDINATES (ANGSTROEM)
---------------------------------
  C     -0.143165    1.540733    0.075321
  C      1.364412    1.238610    0.010133
  N      1.184430    0.156419    1.048855
  C      2.298215   -0.799754    0.727469
  C      2.125890   -0.969381   -0.792231
  O      2.935386   -0.430700   -1.896621
  C      1.726734    0.169458   -2.459277
  C      1.118041    0.106734   -1.044593
  C     -0.002222    0.010886    0.021056
  H     -0.501140    1.962354    1.015400
  H     -0.595130    2.014048   -0.797694
  H      2.209957    1.928363    0.057370
  H      3.241718   -0.333253    1.024756
  H      2.178596   -1.737569    1.275328
  H      1.812276   -1.987093   -1.062244
  H      1.914821    1.156209   -2.891416
  H      1.267556   -0.492123   -3.204719
  H     -0.761399   -0.763011    0.144862

 Total Charge           Charge          ....    0
 Multiplicity           Mult            ....    1
 Number of Electrons    NEL             ....   66
 Basis Dimension        Dim             ....  333

ORBITAL ENERGIES
----------------

  NO   OCC          E(Eh)            E(eV)
   0   2.0000     -20.556643      -559.3747
   1   2.0000     -15.565918      -423.5702
   2   2.0000     -11.292929      -307.2962
   3   2.0000     -11.287131      -307.1384
   4   2.0000     -11.274824      -306.8035
   5   2.0000     -11.271028      -306.7003
   6   2.0000     -11.253212      -306.2155
   7   2.0000     -11.246458      -306.0317
   8   2.0000     -11.236011      -305.7474
   9   2.0000      -1.379635       -37.5418
  10   2.0000      -1.296537       -35.2806
  11   2.0000      -1.064787       -28.9743
  12   2.0000      -1.001962       -27.2648
  13   2.0000      -0.932470       -25.3738
  14   2.0000      -0.882742       -24.0206
  15   2.0000      -0.873117       -23.7587
  16   2.0000      -0.785735       -21.3809
  17   2.0000      -0.721119       -19.6226
  18   2.0000      -0.698004       -18.9937
  19   2.0000      -0.656089       -17.8531
  20   2.0000      -0.644110       -17.5271
  21   2.0000      -0.618234       -16.8230
  22   2.0000      -0.604157       -16.4400
  23   2.0000      -0.560767       -15.2592
  24   2.0000      -0.547682       -14.9032
  25   2.0000      -0.495845       -13.4926
  26   2.0000      -0.485013       -13.1979
  27   2.0000      -0.473030       -12.8718
  28   2.0000      -0.463238       -12.6053
  29   2.0000      -0.454623       -12.3709
  30   2.0000      -0.422740       -11.5034
  31   2.0000      -0.408627       -11.1193
  32   2.0000      -0.384252       -10.4560
  33   0.0000       0.142418         3.8754
  34   0.0000       0.151144         4.1128
  35   0.0000       0.166169         4.5217
  36   0.0000       0.169678         4.6172
  37   0.0000       0.190439         5.1821

MULLIKEN ATOMIC CHARGES
-----------------------
   0 C :   -0.175612
   1 C :   -0.114626
   2 N :   -0.200660
   3 C :   -0.147577
   4 C :   -0.025585
   5 O :   -0.311812
   6 C :   -0.031590
   7 C :    0.004449
   8 C :   -0.073539
   9 H :    0.119299
  10 H :    0.120903
  11 H :    0.135624
  12 H :    0.126910
  13 H :    0.131399
  14 H :    0.088124
  15 H :    0.115650
  16 H :    0.099980
  17 H :    0.138663
Sum of atomic charges:    0.0000000

LOEWDIN ATOMIC CHARGES
----------------------
   0 C :   -0.199154
   1 C :   -0.170584
   2 N :    0.135612
   3 C :   -0.250440
   4 C :   -0.239431
   5 O :    0.119845
   6 C :   -0.228288
   7 C :   -0.197504
   8 C :   -0.145031
   9 H :    0.132476
  10 H :    0.131655
  11 H :    0.130294
  12 H :    0.139786
  13 H :    0.131254
  14 H :    0.138495
  15 H :    0.122465
  16 H :    0.122224
  17 H :    0.126327

  Mayer bond orders larger than 0.1
B(  0-C ,  1-C ) :   0.9132 B(  0-C ,  8-C ) :   0.9210 B(  0-C ,  9-H ) :   0.9107
B(  0-C , 10-H ) :   0.9297 B(  1-C ,  2-N ) :   0.8999 B(  1-C ,  7-C ) :   0.8702
B(  1-C , 11-H ) :   0.8781 B(  2-N ,  3-C ) :   0.9411 B(  2-N ,  8-C ) :   0.8710
B(  3-C ,  4-C ) :   0.9148 B(  3-C , 12-H ) :   0.9127 B(  3-C , 13-H ) :   0.9257
B(  4-C ,  5-O ) :   0.9887 B(  4-C ,  7-C ) :   0.9469 B(  4-C , 14-H ) :   0.9540
B(  5-O ,  6-C ) :   0.9460 B(  6-C ,  7-C ) :   0.9529 B(  6-C , 15-H ) :   0.9152
B(  6-C , 16-H ) :   0.8874 B(  7-C ,  8-C ) :   0.8596 B(  8-C , 17-H ) :   0.8830

MP2 TOTAL ENERGY:     -401.141102896 Eh
FINAL SINGLE POINT ENERGY      -401.141102895943

DIPOLE MOMENT
-------------
                                X             Y             Z
Electronic contribution:      1.37492      -0.73750      -0.38190
Nuclear contribution   :     -1.96857       0.76540       0.05482
                        -----------------------------------------
Total Dipole Moment    :     -0.59365       0.02790      -0.32708
                        -----------------------------------------
Magnitude (a.u.)       :      0.67837
Magnitude (Debye)      :      1.72427

                             ****ORCA TERMINATED NORMALLY****
TOTAL RUN TIME: 0 days 0 hours 19 minutes 9 seconds 513 msec
