                         Program Version 3.0.3 - RELEASE   -
|  1> ! RI-MP2 RIJK def2-TZVP def2-TZVP/C def2-TZVP/JK TIGHTSCF
|  2> % maxcore 2000
|  3> % mp2 density relaxed end
|  4> *xyz 0 1
|  5>  C        0.0788445966     1.5954475503     0.0519923206
|  6>  C        0.0985646154     0.0973525339    -0.0024926029
|  7>  C       -0.8911730897    -0.8127401741     0.7242970165
|  8>  C        0.5826817687    -0.9331792085     1.0198076430
|  9>  N        1.2701190591    -1.6548606954    -0.0723333785
| 10>  C        1.4367492874    -2.8774172169    -0.6949930358
| 11>  C        1.1647124415    -2.6162257756    -2.0218656036
| 12>  N        0.6892281425    -1.3243597934    -2.2211972349
| 13>  C        0.7799919065    -0.7996676724    -1.0250755200
| 14>  H        1.0803908475     2.0100983646    -0.0979309515
| 15>  H       -0.5735355996     2.0028204521    -0.7276013807
| 16>  H       -0.2979163539     1.9468857765     1.0175397725
| 17>  H       -1.4913243081    -0.3350722689     1.4959154372
| 18>  H       -1.3939343044    -1.6129065724     0.1901963874
| 19>  H        1.0510351294    -0.7929148789     1.9848657290
| 20>  H        1.8338522455    -3.7516989491    -0.2063911706
| 21>  H        1.3131329057    -3.2825693918    -2.8597213275
| 22> *
| 23>
| 24>                          ****END OF INPUT****

CARTESIAN COORDINATES (ANGSTROEM)
---------------------------------
  C      0.078845    1.595448    0.051992
  C      0.098565    0.097353   -0.002493
  C     -0.891173   -0.812740    0.724297
  C      0.582682   -0.933179    1.019808
  N      1.270119   -1.654861   -0.072333
  C      1.436749   -2.877417   -0.694993
  C      1.164712   -2.616226   -2.021866
  N      0.689228   -1.324360   -2.221197
  C      0.779992   -0.799668   -1.025076
  H      1.080391    2.010098   -0.097931
  H     -0.573536    2.002820   -0.727601
  H     -0.297916    1.946886    1.017540
  H     -1.491324   -0.335072    1.495915
  H     -1.393934   -1.612907    0.190196
  H      1.051035   -0.792915    1.984866
  H      1.833852   -3.751699   -0.206391
  H      1.313133   -3.282569   -2.859721

 Total Charge           Charge          ....    0
 Multiplicity           Mult            ....    1
 Number of Electrons    NEL             ....   64
 Basis Dimension        Dim             ....  327

ORBITAL ENERGIES
----------------

  NO   OCC          E(Eh)            E(eV)
   0   2.0000     -15.599977      -424.4970
   1   2.0000     -15.543109      -422.9495
   2   2.0000     -11.297523      -307.4212
   3   2.0000     -11.291976      -307.2703
   4   2.0000     -11.274347      -306.7906
   5   2.0000     -11.257227      -306.3247
   6   2.0000     -11.255380      -306.2744
   7   2.0000     -11.246065      -306.0210
   8   2.0000     -11.236046      -305.7483
   9   2.0000      -1.361863       -37.0582
  10   2.0000      -1.211493       -32.9664
  11   2.0000      -1.123465       -30.5710
  12   2.0000      -0.997076       -27.1318
  13   2.0000      -0.985267       -26.8105
  14   2.0000      -0.861962       -23.4552
  15   2.0000      -0.847026       -23.0488
  16   2.0000      -0.777770       -21.1642
  17   2.0000      -0.710405       -19.3311
  18   2.0000      -0.700440       -19.0599
  19   2.0000      -0.670897       -18.2560
  20   2.0000      -0.626169       -17.0389
  21   2.0000      -0.592911       -16.1339
  22   2.0000      -0.579427       -15.7670
  23   2.0000      -0.571114       -15.5408
  24   2.0000      -0.557609       -15.1733
  25   2.0000      -0.545382       -14.8406
  26   2.0000      -0.515195       -14.0192
  27   2.0000      -0.469061       -12.7638
  28   2.0000      -0.437697       -11.9103
  29   2.0000      -0.407963       -11.1012
  30   2.0000      -0.378572       -10.3015
  31   2.0000      -0.310127        -8.4390
  32   0.0000       0.133552         3.6341
  33   0.0000       0.141224         3.8429
  34   0.0000       0.166123         4.5204
  35   0.0000       0.174120         4.7381
  36   0.0000       0.175364         4.7719

MULLIKEN ATOMIC CHARGES
-----------------------
   0 C :   -0.417707
   1 C :    0.019516
   2 C :   -0.249561
   3 C :   -0.029693
   4 N :   -0.088025
   5 C :   -0.136514
   6 C :   -0.087435
   7 N :   -0.275790
   8 C :    0.114033
   9 H :    0.146643
  10 H :    0.152820
  11 H :    0.131476
  12 H :    0.133240
  13 H :    0.160578
  14 H :    0.151253
  15 H :    0.144842
  16 H :    0.130323
Sum of atomic charges:    0.0000000

LOEWDIN ATOMIC CHARGES
----------------------
   0 C :   -0.265858
   1 C :   -0.185323
   2 C :   -0.158003
   3 C :   -0.149509
   4 N :    0.291914
   5 C :   -0.231114
   6 C :   -0.242784
   7 N :    0.104111
   8 C :   -0.254915
   9 H :    0.133425
  10 H :    0.136614
  11 H :    0.130828
  12 H :    0.141974
  13 H :    0.144020
  14 H :    0.138514
  15 H :    0.134111
  16 H :    0.131995

  Mayer bond orders larger than 0.1
B(  0-C ,  1-C ) :   0.8909 B(  0-C ,  9-H ) :   0.9389 B(  0-C , 10-H ) :   0.9397
B(  0-C , 11-H ) :   0.9327 B(  1-C ,  2-C ) :   0.8706 B(  1-C ,  3-C ) :   0.8475
B(  1-C ,  8-C ) :   0.9220 B(  2-C ,  3-C ) :   0.8797 B(  2-C , 12-H ) :   0.9156
B(  2-C , 13-H ) :   0.9108 B(  3-C ,  4-N ) :   0.8718 B(  3-C , 14-H ) :   0.9079
B(  4-N ,  5-C ) :   1.1066 B(  4-N ,  8-C ) :   1.1481 B(  5-C ,  6-C ) :   1.4842
B(  5-C , 15-H ) :   0.9201 B(  6-C ,  7-N ) :   1.2497 B(  6-C , 16-H ) :   0.9383
B(  7-N ,  8-C ) :   1.6180

MP2 TOTAL ENERGY:     -380.161422957 Eh
FINAL SINGLE POINT ENERGY      -380.161422957336

DIPOLE MOMENT
-------------
                                X             Y             Z
Electronic contribution:      2.63576      -3.97510      -2.76230
Nuclear contribution   :     -2.81657       4.02362       4.15827
                        -----------------------------------------
Total Dipole Moment    :     -0.18080       0.04852       1.39597
                        -----------------------------------------
Magnitude (a.u.)       :      1.40846
Magnitude (Debye)      :      3.58003

                             ****ORCA TERMINATED NORMALLY****
TOTAL RUN TIME: 0 days 0 hours 25 minutes 26 seconds 988 msec
