                         Program Version 3.0.3 - RELEASE   -
|  1> ! RI-MP2 RIJK def2-TZVP def2-TZVP/C def2-TZVP/JK TIGHTSCF
|  2> % maxcore 2000
|  3> % mp2 density relaxed end
|  4> *xyz 0 1
|  5>  N        0.2694468800    -0.9150573608    -0.6411337019
|  6>  C        0.2207982826     0.1458640704    -0.1862725935
|  7>  C        0.1675672804     1.4997644794     0.3895981497
|  8>  N        1.4407896795     2.2020835113     0.3070149310
|  9>  C        1.7803474528     2.6422610265    -0.8211154291
| 10>  O        1.0959757136     2.5463087741    -2.0035495997
| 11>  C        1.8669745487     3.1846712778    -2.9610484224
| 12>  C        2.9669758767     3.6461372009    -2.3790906950
| 13>  O        2.9386814089     3.3206672373    -1.0365480085
| 14>  H       -0.6487206985     2.0424940327    -0.1080564879
| 15>  H       -0.1025134663     1.4061287279     1.4455997349
| 16>  H        1.4877572259     3.2049186177    -3.9666586140
| 17>  H        3.8245542258     4.1892955246    -2.7325947036
| 18> *
| 19>
| 20>                          ****END OF INPUT****

CARTESIAN COORDINATES (ANGSTROEM)
---------------------------------
  N      0.269447   -0.915057   -0.641134
  C      0.220798    0.145864   -0.186273
  C      0.167567    1.499764    0.389598
  N      1.440790    2.202084    0.307015
  C      1.780347    2.642261   -0.821115
  O      1.095976    2.546309   -2.003550
  C      1.866975    3.184671   -2.961048
  C      2.966976    3.646137   -2.379091
  O      2.938681    3.320667   -1.036548
  H     -0.648721    2.042494   -0.108056
  H     -0.102513    1.406129    1.445600
  H      1.487757    3.204919   -3.966659
  H      3.824554    4.189296   -2.732595

 Total Charge           Charge          ....    0
 Multiplicity           Mult            ....    1
 Number of Electrons    NEL             ....   64
 Basis Dimension        Dim             ....  303

ORBITAL ENERGIES
----------------

  NO   OCC          E(Eh)            E(eV)
   0   2.0000     -20.658846      -562.1558
   1   2.0000     -20.654100      -562.0266
   2   2.0000     -15.566764      -423.5932
   3   2.0000     -15.565698      -423.5642
   4   2.0000     -11.428667      -310.9898
   5   2.0000     -11.333368      -308.3966
   6   2.0000     -11.331508      -308.3460
   7   2.0000     -11.313686      -307.8610
   8   2.0000     -11.269689      -306.6638
   9   2.0000      -1.552502       -42.2457
  10   2.0000      -1.429374       -38.8952
  11   2.0000      -1.266719       -34.4692
  12   2.0000      -1.211117       -32.9562
  13   2.0000      -1.076080       -29.2816
  14   2.0000      -1.004098       -27.3229
  15   2.0000      -0.896988       -24.4083
  16   2.0000      -0.869045       -23.6479
  17   2.0000      -0.768884       -20.9224
  18   2.0000      -0.732493       -19.9322
  19   2.0000      -0.704230       -19.1631
  20   2.0000      -0.688986       -18.7483
  21   2.0000      -0.669470       -18.2172
  22   2.0000      -0.627102       -17.0643
  23   2.0000      -0.616211       -16.7680
  24   2.0000      -0.606755       -16.5106
  25   2.0000      -0.596848       -16.2411
  26   2.0000      -0.556515       -15.1435
  27   2.0000      -0.483016       -13.1435
  28   2.0000      -0.473089       -12.8734
  29   2.0000      -0.456334       -12.4175
  30   2.0000      -0.440030       -11.9738
  31   2.0000      -0.362345        -9.8599
  32   0.0000       0.131972         3.5911
  33   0.0000       0.133605         3.6356
  34   0.0000       0.155528         4.2321
  35   0.0000       0.161982         4.4078
  36   0.0000       0.165429         4.5016

MULLIKEN ATOMIC CHARGES
-----------------------
   0 N :   -0.068325
   1 C :   -0.193684
   2 C :    0.017382
   3 N :   -0.271665
   4 C :    0.351385
   5 O :   -0.231224
   6 C :   -0.034427
   7 C :   -0.033705
   8 O :   -0.206273
   9 H :    0.151360
  10 H :    0.167752
  11 H :    0.176352
  12 H :    0.175072
Sum of atomic charges:   -0.0000000

LOEWDIN ATOMIC CHARGES
----------------------
   0 N :    0.059278
   1 C :   -0.189973
   2 C :   -0.275676
   3 N :    0.086400
   4 C :   -0.443727
   5 O :    0.306436
   6 C :   -0.234669
   7 C :   -0.234994
   8 O :    0.324982
   9 H :    0.153771
  10 H :    0.159014
  11 H :    0.144310
  12 H :    0.144848

  Mayer bond orders larger than 0.1
B(  0-N ,  1-C ) :   2.8535 B(  1-C ,  2-C ) :   0.8975 B(  2-C ,  3-N ) :   0.8762
B(  2-C ,  9-H ) :   0.9141 B(  2-C , 10-H ) :   0.9138 B(  3-N ,  4-C ) :   1.8769
B(  4-C ,  5-O ) :   1.0273 B(  4-C ,  8-O ) :   1.0707 B(  5-O ,  6-C ) :   0.9654
B(  6-C ,  7-C ) :   1.7383 B(  6-C , 11-H ) :   0.9199 B(  7-C ,  8-O ) :   0.9683
B(  7-C , 12-H ) :   0.9242

MP2 TOTAL ENERGY:     -452.008935599 Eh
FINAL SINGLE POINT ENERGY      -452.008935599085

DIPOLE MOMENT
-------------
                                X             Y             Z
Electronic contribution:      1.12456      -0.68535       0.10805
Nuclear contribution   :     -1.06861       2.42998      -1.09468
                        -----------------------------------------
Total Dipole Moment    :      0.05595       1.74463      -0.98664
                        -----------------------------------------
Magnitude (a.u.)       :      2.00507
Magnitude (Debye)      :      5.09649

                             ****ORCA TERMINATED NORMALLY****
TOTAL RUN TIME: 0 days 0 hours 11 minutes 36 seconds 397 msec
