                         Program Version 3.0.3 - RELEASE   -
|  1> ! RI-MP2 RIJK def2-TZVP def2-TZVP/C def2-TZVP/JK TIGHTSCF
|  2> % maxcore 2000
|  3> % mp2 density relaxed end
|  4> *xyz 0 1
|  5>  C        2.8354726459    -0.3309573839     0.1422367053
|  6>  N        1.6772623530    -1.1880978877     0.3455140450
|  7>  C        1.8189276813    -2.3163384981     1.2581291160
|  8>  C        0.9578342936    -1.1526909984     1.6244499055
|  9>  C        1.3381891091    -0.2348858593     2.7422454841
| 10>  C        0.5845693990     1.0686948736     2.9832834452
| 11>  C        0.4972036164    -0.0623809177     3.9788642599
| 12>  C       -0.8019250969    -0.8043781732     4.1980555173
| 13>  O        1.2792300285     0.0561559600     5.1437167104
| 14>  H        3.5112814792    -0.2535477948     1.0081782256
| 15>  H        3.4153717727    -0.7249651754    -0.6986735060
| 16>  H        2.4998850474     0.6774112345    -0.1200118887
| 17>  H        1.3848398411    -3.2588430579     0.9329228837
| 18>  H        2.7590075629    -2.4160213855     1.8016288144
| 19>  H       -0.1163533965    -1.2635890127     1.4849342173
| 20>  H        2.3989488683    -0.1840883719     2.9624632786
| 21>  H        1.1675391035     1.9397970162     3.2607261169
| 22>  H       -0.2814270218     1.2731424861     2.3608212989
| 23>  H       -1.3880704063    -0.8883773921     3.2797982462
| 24>  H       -0.6112888917    -1.8108833252     4.5836112595
| 25>  H       -1.4205584946    -0.2731311486     4.9321797403
| 26>  H        0.8038113460     0.6270928020     5.7582881449
| 27> *
| 28>
| 29>                          ****END OF INPUT****

CARTESIAN COORDINATES (ANGSTROEM)
---------------------------------
  C      2.835473   -0.330957    0.142237
  N      1.677262   -1.188098    0.345514
  C      1.818928   -2.316338    1.258129
  C      0.957834   -1.152691    1.624450
  C      1.338189   -0.234886    2.742245
  C      0.584569    1.068695    2.983283
  C      0.497204   -0.062381    3.978864
  C     -0.801925   -0.804378    4.198056
  O      1.279230    0.056156    5.143717
  H      3.511281   -0.253548    1.008178
  H      3.415372   -0.724965   -0.698674
  H      2.499885    0.677411   -0.120012
  H      1.384840   -3.258843    0.932923
  H      2.759008   -2.416021    1.801629
  H     -0.116353   -1.263589    1.484934
  H      2.398949   -0.184088    2.962463
  H      1.167539    1.939797    3.260726
  H     -0.281427    1.273142    2.360821
  H     -1.388070   -0.888377    3.279798
  H     -0.611289   -1.810883    4.583611
  H     -1.420558   -0.273131    4.932180
  H      0.803811    0.627093    5.758288

 Total Charge           Charge          ....    0
 Multiplicity           Mult            ....    1
 Number of Electrons    NEL             ....   70
 Basis Dimension        Dim             ....  357

ORBITAL ENERGIES
----------------

  NO   OCC          E(Eh)            E(eV)
   0   2.0000     -20.561566      -559.5087
   1   2.0000     -15.551674      -423.1826
   2   2.0000     -11.291247      -307.2504
   3   2.0000     -11.257537      -306.3332
   4   2.0000     -11.246480      -306.0323
   5   2.0000     -11.240869      -305.8796
   6   2.0000     -11.232633      -305.6555
   7   2.0000     -11.224444      -305.4327
   8   2.0000     -11.224265      -305.4278
   9   2.0000      -1.372597       -37.3503
  10   2.0000      -1.266195       -34.4549
  11   2.0000      -1.135526       -30.8992
  12   2.0000      -0.990797       -26.9609
  13   2.0000      -0.975127       -26.5346
  14   2.0000      -0.879472       -23.9317
  15   2.0000      -0.827980       -22.5305
  16   2.0000      -0.804125       -21.8813
  17   2.0000      -0.746834       -20.3224
  18   2.0000      -0.692960       -18.8564
  19   2.0000      -0.667719       -18.1696
  20   2.0000      -0.649137       -17.6639
  21   2.0000      -0.619594       -16.8600
  22   2.0000      -0.599724       -16.3193
  23   2.0000      -0.584645       -15.9090
  24   2.0000      -0.569522       -15.4975
  25   2.0000      -0.556428       -15.1412
  26   2.0000      -0.552091       -15.0232
  27   2.0000      -0.529304       -14.4031
  28   2.0000      -0.505114       -13.7448
  29   2.0000      -0.497619       -13.5409
  30   2.0000      -0.471967       -12.8429
  31   2.0000      -0.453387       -12.3373
  32   2.0000      -0.408430       -11.1140
  33   2.0000      -0.391765       -10.6605
  34   2.0000      -0.352714        -9.5978
  35   0.0000       0.132942         3.6175
  36   0.0000       0.153306         4.1717
  37   0.0000       0.163508         4.4493
  38   0.0000       0.171481         4.6662
  39   0.0000       0.188351         5.1253

MULLIKEN ATOMIC CHARGES
-----------------------
   0 C :   -0.284379
   1 N :   -0.219153
   2 C :   -0.178896
   3 C :   -0.054492
   4 C :   -0.101891
   5 C :   -0.316710
   6 C :    0.194072
   7 C :   -0.400127
   8 O :   -0.463184
   9 H :    0.104138
  10 H :    0.141254
  11 H :    0.132431
  12 H :    0.123145
  13 H :    0.116685
  14 H :    0.114110
  15 H :    0.127946
  16 H :    0.136979
  17 H :    0.124657
  18 H :    0.122447
  19 H :    0.143939
  20 H :    0.120224
  21 H :    0.316804
Sum of atomic charges:   -0.0000000

LOEWDIN ATOMIC CHARGES
----------------------
   0 C :   -0.332303
   1 N :    0.086828
   2 C :   -0.244841
   3 C :   -0.240666
   4 C :   -0.178641
   5 C :   -0.194018
   6 C :   -0.368587
   7 C :   -0.273650
   8 O :    0.017418
   9 H :    0.103878
  10 H :    0.118568
  11 H :    0.118763
  12 H :    0.122449
  13 H :    0.124853
  14 H :    0.145074
  15 H :    0.159602
  16 H :    0.135298
  17 H :    0.136270
  18 H :    0.127896
  19 H :    0.131446
  20 H :    0.125276
  21 H :    0.179088

  Mayer bond orders larger than 0.1
B(  0-C ,  1-N ) :   0.8938 B(  0-C ,  9-H ) :   0.9304 B(  0-C , 10-H ) :   0.9366
B(  0-C , 11-H ) :   0.9390 B(  1-N ,  2-C ) :   0.8970 B(  1-N ,  3-C ) :   0.9440
B(  2-C ,  3-C ) :   0.9479 B(  2-C , 12-H ) :   0.9193 B(  2-C , 13-H ) :   0.9177
B(  3-C ,  4-C ) :   0.9290 B(  3-C , 14-H ) :   0.8985 B(  4-C ,  5-C ) :   0.8793
B(  4-C ,  6-C ) :   0.8516 B(  4-C , 15-H ) :   0.9035 B(  5-C ,  6-C ) :   0.9154
B(  5-C , 16-H ) :   0.9192 B(  5-C , 17-H ) :   0.9079 B(  6-C ,  7-C ) :   0.9535
B(  6-C ,  8-O ) :   1.0033 B(  7-C , 18-H ) :   0.9278 B(  7-C , 19-H ) :   0.9386
B(  7-C , 20-H ) :   0.9224 B(  8-O , 21-H ) :   0.8412

MP2 TOTAL ENERGY:     -403.605753985 Eh
FINAL SINGLE POINT ENERGY      -403.605753985042

DIPOLE MOMENT
-------------
                                X             Y             Z
Electronic contribution:      0.36362      -0.06599       1.70261
Nuclear contribution   :     -0.65326       0.41252      -1.27798
                        -----------------------------------------
Total Dipole Moment    :     -0.28965       0.34653       0.42462
                        -----------------------------------------
Magnitude (a.u.)       :      0.61991
Magnitude (Debye)      :      1.57568

                             ****ORCA TERMINATED NORMALLY****
TOTAL RUN TIME: 0 days 0 hours 17 minutes 22 seconds 26 msec
