                         Program Version 3.0.3 - RELEASE   -
|  1> ! RI-MP2 RIJK def2-TZVP def2-TZVP/C def2-TZVP/JK TIGHTSCF
|  2> % maxcore 2000
|  3> % mp2 density relaxed end
|  4> *xyz 0 1
|  5>  C       -0.1759222526     1.5163729540     0.0102442370
|  6>  C        0.1255276394     0.0562681783     0.0487580791
|  7>  O       -0.7072767108    -0.8231384633     0.8044534406
|  8>  C        0.7006896482    -0.8445714554     1.0511761476
|  9>  C        1.4182803250    -1.6743358373    -0.0768370485
| 10>  C        2.7721071257    -2.2926664448     0.0392512726
| 11>  O        2.7837140614    -3.4197955147     0.9027554599
| 12>  N        0.3569431732    -2.1928802711    -0.9834175383
| 13>  C        0.8149037993    -0.7865947779    -1.0968633846
| 14>  H        0.6896663350     2.0824307338    -0.3499744708
| 15>  H       -1.0161048591     1.7214670984    -0.6629148324
| 16>  H       -0.4396958073     1.8761675252     1.0081306728
| 17>  H        1.0499881955    -0.6854144099     2.0646815975
| 18>  H        3.1465861251    -2.5435998604    -0.9679796754
| 19>  H        3.4803607298    -1.5803743855     0.4783993245
| 20>  H        2.0675629897    -4.0033175201     0.6294462477
| 21>  H        0.8386179167    -2.7023080477    -1.7278127985
| 22>  H        1.2394193357    -0.3933865115    -2.0122863608
| 23> *
| 24>
| 25>                          ****END OF INPUT****

CARTESIAN COORDINATES (ANGSTROEM)
---------------------------------
  C     -0.175922    1.516373    0.010244
  C      0.125528    0.056268    0.048758
  O     -0.707277   -0.823138    0.804453
  C      0.700690   -0.844571    1.051176
  C      1.418280   -1.674336   -0.076837
  C      2.772107   -2.292666    0.039251
  O      2.783714   -3.419796    0.902755
  N      0.356943   -2.192880   -0.983418
  C      0.814904   -0.786595   -1.096863
  H      0.689666    2.082431   -0.349974
  H     -1.016105    1.721467   -0.662915
  H     -0.439696    1.876168    1.008131
  H      1.049988   -0.685414    2.064682
  H      3.146586   -2.543600   -0.967980
  H      3.480361   -1.580374    0.478399
  H      2.067563   -4.003318    0.629446
  H      0.838618   -2.702308   -1.727813
  H      1.239419   -0.393387   -2.012286

 Total Charge           Charge          ....    0
 Multiplicity           Mult            ....    1
 Number of Electrons    NEL             ....   68
 Basis Dimension        Dim             ....  333

ORBITAL ENERGIES
----------------

  NO   OCC          E(Eh)            E(eV)
   0   2.0000     -20.566382      -559.6397
   1   2.0000     -20.565229      -559.6083
   2   2.0000     -15.572910      -423.7604
   3   2.0000     -11.299213      -307.4672
   4   2.0000     -11.295972      -307.3790
   5   2.0000     -11.288567      -307.1775
   6   2.0000     -11.276520      -306.8497
   7   2.0000     -11.274562      -306.7964
   8   2.0000     -11.234646      -305.7103
   9   2.0000      -1.425788       -38.7977
  10   2.0000      -1.370533       -37.2941
  11   2.0000      -1.269704       -34.5504
  12   2.0000      -1.030078       -28.0299
  13   2.0000      -0.998425       -27.1685
  14   2.0000      -0.954499       -25.9732
  15   2.0000      -0.866675       -23.5834
  16   2.0000      -0.795506       -21.6468
  17   2.0000      -0.758237       -20.6327
  18   2.0000      -0.728437       -19.8218
  19   2.0000      -0.671879       -18.2828
  20   2.0000      -0.650569       -17.7029
  21   2.0000      -0.633373       -17.2350
  22   2.0000      -0.620710       -16.8904
  23   2.0000      -0.597073       -16.2472
  24   2.0000      -0.574561       -15.6346
  25   2.0000      -0.566354       -15.4113
  26   2.0000      -0.540143       -14.6980
  27   2.0000      -0.523035       -14.2325
  28   2.0000      -0.498839       -13.5741
  29   2.0000      -0.469929       -12.7874
  30   2.0000      -0.463466       -12.6116
  31   2.0000      -0.451073       -12.2743
  32   2.0000      -0.402496       -10.9525
  33   2.0000      -0.354155        -9.6371
  34   0.0000       0.125723         3.4211
  35   0.0000       0.139799         3.8041
  36   0.0000       0.160093         4.3563
  37   0.0000       0.166061         4.5187
  38   0.0000       0.185241         5.0407

MULLIKEN ATOMIC CHARGES
-----------------------
   0 C :   -0.418850
   1 C :    0.240537
   2 O :   -0.295254
   3 C :   -0.105385
   4 C :    0.091300
   5 C :    0.038846
   6 O :   -0.462174
   7 N :   -0.361212
   8 C :   -0.197220
   9 H :    0.134301
  10 H :    0.145786
  11 H :    0.150064
  12 H :    0.140930
  13 H :    0.097658
  14 H :    0.112361
  15 H :    0.322503
  16 H :    0.214969
  17 H :    0.150839
Sum of atomic charges:    0.0000000

LOEWDIN ATOMIC CHARGES
----------------------
   0 C :   -0.270813
   1 C :   -0.283585
   2 O :    0.218125
   3 C :   -0.183024
   4 C :   -0.260089
   5 C :   -0.322477
   6 O :   -0.042473
   7 N :    0.029462
   8 C :   -0.176233
   9 H :    0.133453
  10 H :    0.135060
  11 H :    0.137698
  12 H :    0.136202
  13 H :    0.124275
  14 H :    0.138790
  15 H :    0.178575
  16 H :    0.173067
  17 H :    0.133986

  Mayer bond orders larger than 0.1
B(  0-C ,  1-C ) :   0.8632 B(  0-C ,  9-H ) :   0.9337 B(  0-C , 10-H ) :   0.9408
B(  0-C , 11-H ) :   0.9422 B(  1-C ,  2-O ) :   0.9201 B(  1-C ,  3-C ) :   0.9790
B(  1-C ,  8-C ) :   0.8415 B(  2-O ,  3-C ) :   0.9524 B(  3-C ,  4-C ) :   0.8211
B(  3-C , 12-H ) :   0.9481 B(  4-C ,  5-C ) :   0.9637 B(  4-C ,  7-N ) :   0.8918
B(  4-C ,  8-C ) :   0.8805 B(  5-C ,  6-O ) :   0.9345 B(  5-C , 13-H ) :   0.9263
B(  5-C , 14-H ) :   0.9021 B(  6-O , 15-H ) :   0.8403 B(  7-N ,  8-C ) :   1.0368
B(  7-N , 16-H ) :   0.8603 B(  8-C , 17-H ) :   0.9174

MP2 TOTAL ENERGY:     -438.261593904 Eh
FINAL SINGLE POINT ENERGY      -438.261593903530

DIPOLE MOMENT
-------------
                                X             Y             Z
Electronic contribution:     -1.84310      -3.62451       1.42461
Nuclear contribution   :      2.58360       4.30002      -2.20513
                        -----------------------------------------
Total Dipole Moment    :      0.74050       0.67551      -0.78052
                        -----------------------------------------
Magnitude (a.u.)       :      1.27038
Magnitude (Debye)      :      3.22906

                             ****ORCA TERMINATED NORMALLY****
TOTAL RUN TIME: 0 days 0 hours 16 minutes 9 seconds 389 msec
