                         Program Version 3.0.3 - RELEASE   -
|  1> ! RI-MP2 RIJK def2-TZVP def2-TZVP/C def2-TZVP/JK TIGHTSCF
|  2> % maxcore 2000
|  3> % mp2 density relaxed end
|  4> *xyz 0 1
|  5>  O        0.0318533843    -0.0008129215     0.0728749784
|  6>  C       -0.0318163747     1.1901645493    -0.0160421739
|  7>  N       -1.1573422796     1.9874126487    -0.0885651775
|  8>  C       -0.8433663211     3.3755212373    -0.0034765227
|  9>  C       -0.0532655961     3.8430981027     1.1994633351
| 10>  C        0.6736642212     3.3712919038    -0.0477010720
| 11>  O        1.0765669967     2.0101800157    -0.0554783723
| 12>  C        1.4736889570     4.2431253982    -0.8466390716
| 13>  C        2.1460737276     4.9905957744    -1.5044210063
| 14>  H       -2.0405431394     1.5946638608     0.1927508637
| 15>  H       -1.4348719151     4.0630102017    -0.5953356944
| 16>  H       -0.0238856541     4.9099643482     1.3871137353
| 17>  H       -0.0090180032     3.2029338353     2.0739130320
| 18>  H        2.7433739367     5.6442677154    -2.0911507137
| 19> *
| 20>
| 21>                          ****END OF INPUT****

CARTESIAN COORDINATES (ANGSTROEM)
---------------------------------
  O      0.031853   -0.000813    0.072875
  C     -0.031816    1.190165   -0.016042
  N     -1.157342    1.987413   -0.088565
  C     -0.843366    3.375521   -0.003477
  C     -0.053266    3.843098    1.199463
  C      0.673664    3.371292   -0.047701
  O      1.076567    2.010180   -0.055478
  C      1.473689    4.243125   -0.846639
  C      2.146074    4.990596   -1.504421
  H     -2.040543    1.594664    0.192751
  H     -1.434872    4.063010   -0.595336
  H     -0.023886    4.909964    1.387114
  H     -0.009018    3.202934    2.073913
  H      2.743374    5.644268   -2.091151

 Total Charge           Charge          ....    0
 Multiplicity           Mult            ....    1
 Number of Electrons    NEL             ....   64
 Basis Dimension        Dim             ....  309

ORBITAL ENERGIES
----------------

  NO   OCC          E(Eh)            E(eV)
   0   2.0000     -20.618423      -561.0558
   1   2.0000     -20.536749      -558.8334
   2   2.0000     -15.609346      -424.7519
   3   2.0000     -11.412969      -310.5627
   4   2.0000     -11.346886      -308.7645
   5   2.0000     -11.310947      -307.7865
   6   2.0000     -11.267492      -306.6041
   7   2.0000     -11.255965      -306.2904
   8   2.0000     -11.248871      -306.0974
   9   2.0000      -1.484525       -40.3960
  10   2.0000      -1.380305       -37.5600
  11   2.0000      -1.267669       -34.4950
  12   2.0000      -1.156359       -31.4661
  13   2.0000      -1.048620       -28.5344
  14   2.0000      -0.911983       -24.8163
  15   2.0000      -0.881193       -23.9785
  16   2.0000      -0.842128       -22.9155
  17   2.0000      -0.784076       -21.3358
  18   2.0000      -0.725591       -19.7443
  19   2.0000      -0.705561       -19.1993
  20   2.0000      -0.685190       -18.6450
  21   2.0000      -0.655981       -17.8502
  22   2.0000      -0.636324       -17.3153
  23   2.0000      -0.601384       -16.3645
  24   2.0000      -0.587703       -15.9922
  25   2.0000      -0.572455       -15.5773
  26   2.0000      -0.511187       -13.9101
  27   2.0000      -0.470231       -12.7956
  28   2.0000      -0.464696       -12.6450
  29   2.0000      -0.426017       -11.5925
  30   2.0000      -0.401678       -10.9302
  31   2.0000      -0.380881       -10.3643
  32   0.0000       0.128797         3.5047
  33   0.0000       0.146788         3.9943
  34   0.0000       0.149291         4.0624
  35   0.0000       0.154633         4.2078
  36   0.0000       0.161033         4.3819

MULLIKEN ATOMIC CHARGES
-----------------------
   0 O :   -0.306681
   1 C :    0.323331
   2 N :   -0.357177
   3 C :   -0.017522
   4 C :   -0.254931
   5 C :   -0.015649
   6 O :   -0.224622
   7 C :   -0.018252
   8 C :   -0.052878
   9 H :    0.260129
  10 H :    0.155596
  11 H :    0.148586
  12 H :    0.156944
  13 H :    0.203125
Sum of atomic charges:    0.0000000

LOEWDIN ATOMIC CHARGES
----------------------
   0 O :    0.114226
   1 C :   -0.546985
   2 N :    0.122496
   3 C :   -0.210002
   4 C :   -0.159592
   5 C :   -0.272196
   6 O :    0.301421
   7 C :   -0.062771
   8 C :   -0.057707
   9 H :    0.195344
  10 H :    0.149182
  11 H :    0.148506
  12 H :    0.146671
  13 H :    0.131405

  Mayer bond orders larger than 0.1
B(  0-O ,  1-C ) :   2.0411 B(  1-C ,  2-N ) :   1.1312 B(  1-C ,  6-O ) :   1.0432
B(  2-N ,  3-C ) :   0.9354 B(  2-N ,  9-H ) :   0.8618 B(  3-C ,  4-C ) :   0.8962
B(  3-C ,  5-C ) :   0.8394 B(  3-C , 10-H ) :   0.9124 B(  4-C ,  5-C ) :   0.8431
B(  4-C , 11-H ) :   0.9147 B(  4-C , 12-H ) :   0.9015 B(  5-C ,  6-O ) :   1.0407
B(  5-C ,  7-C ) :   1.2185 B(  5-C ,  8-C ) :  -0.1748 B(  7-C ,  8-C ) :   2.5834
B(  8-C , 13-H ) :   0.8773

MP2 TOTAL ENERGY:     -435.945510609 Eh
FINAL SINGLE POINT ENERGY      -435.945510608775

DIPOLE MOMENT
-------------
                                X             Y             Z
Electronic contribution:      1.36620      -3.77908      -1.27593
Nuclear contribution   :     -2.28800       5.51226       1.46873
                        -----------------------------------------
Total Dipole Moment    :     -0.92180       1.73318       0.19281
                        -----------------------------------------
Magnitude (a.u.)       :      1.97251
Magnitude (Debye)      :      5.01373

                             ****ORCA TERMINATED NORMALLY****
TOTAL RUN TIME: 0 days 0 hours 15 minutes 7 seconds 122 msec
