                         Program Version 3.0.3 - RELEASE   -
|  1> ! RI-MP2 RIJK def2-TZVP def2-TZVP/C def2-TZVP/JK TIGHTSCF
|  2> % maxcore 2000
|  3> % mp2 density relaxed end
|  4> *xyz 0 1
|  5>  N        0.0262624549     1.3521882366     0.1631500360
|  6>  C       -0.0319681083    -0.0268161486     0.0560803379
|  7>  C       -1.1614667325    -0.8341032708     0.0330142838
|  8>  N       -0.6272596085    -2.1163765473    -0.0093767522
|  9>  N       -0.9971668246    -3.4175072480    -0.0558582823
| 10>  N        0.0847183190    -4.1169836623    -0.0840978709
| 11>  N        1.1551267751    -3.2710593435    -0.0580208448
| 12>  C        0.7303107530    -1.9843290677    -0.0105784502
| 13>  N        1.1556085142    -0.7433900279     0.0252701395
| 14>  H        0.9132515028     1.7214838685    -0.1497304657
| 15>  H       -0.7549378973     1.8450248121    -0.2439527576
| 16>  H       -2.2161242591    -0.6344435392     0.0579132508
| 17>  H        2.0872602913    -3.6459168318    -0.0714308844
| 18> *
| 19>
| 20>                          ****END OF INPUT****

CARTESIAN COORDINATES (ANGSTROEM)
---------------------------------
  N      0.026262    1.352188    0.163150
  C     -0.031968   -0.026816    0.056080
  C     -1.161467   -0.834103    0.033014
  N     -0.627260   -2.116377   -0.009377
  N     -0.997167   -3.417507   -0.055858
  N      0.084718   -4.116984   -0.084098
  N      1.155127   -3.271059   -0.058021
  C      0.730311   -1.984329   -0.010578
  N      1.155609   -0.743390    0.025270
  H      0.913252    1.721484   -0.149730
  H     -0.754938    1.845025   -0.243953
  H     -2.216124   -0.634444    0.057913
  H      2.087260   -3.645917   -0.071431

 Total Charge           Charge          ....    0
 Multiplicity           Mult            ....    1
 Number of Electrons    NEL             ....   64
 Basis Dimension        Dim             ....  303

ORBITAL ENERGIES
----------------

  NO   OCC          E(Eh)            E(eV)
   0   2.0000     -15.681966      -426.7280
   1   2.0000     -15.680807      -426.6965
   2   2.0000     -15.672125      -426.4602
   3   2.0000     -15.667525      -426.3350
   4   2.0000     -15.568449      -423.6390
   5   2.0000     -15.553393      -423.2293
   6   2.0000     -11.359179      -309.0990
   7   2.0000     -11.312362      -307.8250
   8   2.0000     -11.252093      -306.1850
   9   2.0000      -1.511617       -41.1332
  10   2.0000      -1.336626       -36.3714
  11   2.0000      -1.275851       -34.7177
  12   2.0000      -1.218298       -33.1516
  13   2.0000      -1.146759       -31.2049
  14   2.0000      -1.030684       -28.0463
  15   2.0000      -0.920441       -25.0465
  16   2.0000      -0.859116       -23.3777
  17   2.0000      -0.832524       -22.6541
  18   2.0000      -0.758309       -20.6346
  19   2.0000      -0.718704       -19.5569
  20   2.0000      -0.713389       -19.4123
  21   2.0000      -0.655604       -17.8399
  22   2.0000      -0.637491       -17.3470
  23   2.0000      -0.611826       -16.6486
  24   2.0000      -0.572304       -15.5732
  25   2.0000      -0.562641       -15.3102
  26   2.0000      -0.516320       -14.0498
  27   2.0000      -0.508762       -13.8441
  28   2.0000      -0.473361       -12.8808
  29   2.0000      -0.456184       -12.4134
  30   2.0000      -0.361954        -9.8493
  31   2.0000      -0.297437        -8.0937
  32   0.0000       0.119510         3.2520
  33   0.0000       0.126833         3.4513
  34   0.0000       0.137373         3.7381
  35   0.0000       0.179143         4.8747
  36   0.0000       0.182924         4.9776

MULLIKEN ATOMIC CHARGES
-----------------------
   0 N :   -0.519746
   1 C :    0.216488
   2 C :   -0.220757
   3 N :    0.105701
   4 N :   -0.171476
   5 N :   -0.070764
   6 N :   -0.150680
   7 C :    0.197333
   8 N :   -0.347424
   9 H :    0.262203
  10 H :    0.249986
  11 H :    0.166254
  12 H :    0.282883
Sum of atomic charges:   -0.0000000

LOEWDIN ATOMIC CHARGES
----------------------
   0 N :   -0.069851
   1 C :   -0.346872
   2 C :   -0.224949
   3 N :    0.219639
   4 N :   -0.032457
   5 N :   -0.044415
   6 N :    0.123304
   7 C :   -0.393158
   8 N :    0.086931
   9 H :    0.175372
  10 H :    0.169583
  11 H :    0.138800
  12 H :    0.198073

  Mayer bond orders larger than 0.1
B(  0-N ,  1-C ) :   1.0530 B(  0-N ,  9-H ) :   0.8696 B(  0-N , 10-H ) :   0.8782
B(  1-C ,  2-C ) :   1.4687 B(  1-C ,  8-N ) :   1.2358 B(  2-C ,  3-N ) :   1.0581
B(  2-C , 11-H ) :   0.9158 B(  3-N ,  4-N ) :   0.9478 B(  3-N ,  7-C ) :   1.0977
B(  4-N ,  5-N ) :   1.3654 B(  4-N ,  6-N ) :   0.1070 B(  5-N ,  6-N ) :   1.0052
B(  6-N ,  7-C ) :   1.1203 B(  6-N , 12-H ) :   0.8579 B(  7-C ,  8-N ) :   1.5685

MP2 TOTAL ENERGY:     -444.353543184 Eh
FINAL SINGLE POINT ENERGY      -444.353543184488

DIPOLE MOMENT
-------------
                                X             Y             Z
Electronic contribution:      0.51311      -5.01838      -0.01238
Nuclear contribution   :     -0.13986       5.58788      -0.39029
                        -----------------------------------------
Total Dipole Moment    :      0.37325       0.56950      -0.40267
                        -----------------------------------------
Magnitude (a.u.)       :      0.79106
Magnitude (Debye)      :      2.01073

                             ****ORCA TERMINATED NORMALLY****
TOTAL RUN TIME: 0 days 0 hours 14 minutes 57 seconds 103 msec
