                         Program Version 3.0.3 - RELEASE   -
|  1> ! RI-MP2 RIJK def2-TZVP def2-TZVP/C def2-TZVP/JK TIGHTSCF
|  2> % maxcore 2000
|  3> % mp2 density relaxed end
|  4> *xyz 0 1
|  5>  C       -0.0492098199     1.6132848548     0.0142017786
|  6>  C        0.1457448940     0.0989840766     0.1555378491
|  7>  C        0.6492242616    -0.5335030274    -1.1406783374
|  8>  C        0.9016779271    -2.0506086110    -1.2702524456
|  9>  C       -0.3495822091    -2.8394421805    -1.3074424789
| 10>  O       -1.4553945281    -2.4732382066    -0.5362452762
| 11>  C        0.0408858631    -2.1096965351    -2.5815626147
| 12>  C       -0.2427441899    -0.6416705695    -2.4026569253
| 13>  O       -0.8329845515     0.1658315026    -3.0645792375
| 14>  H        0.8968850641     2.1165880831    -0.2163195330
| 15>  H       -0.7493136543     1.8421055879    -0.7944468378
| 16>  H       -0.4399465428     2.0466329910     0.9398313399
| 17>  H        0.8700599112    -0.1116557227     0.9532581705
| 18>  H       -0.7903070042    -0.3813562240     0.4489059897
| 19>  H        1.5518904035    -0.0026995370    -1.4784217438
| 20>  H        1.8633386746    -2.5213311761    -1.1080266648
| 21>  H       -0.1966823296    -3.9174932168    -1.3808067893
| 22>  H       -2.2519612914    -2.6505989430    -1.0483134724
| 23>  H        0.1903978716    -2.6336553963    -3.5178617512
| 24> *
| 25>
| 26>                          ****END OF INPUT****

CARTESIAN COORDINATES (ANGSTROEM)
---------------------------------
  C     -0.049210    1.613285    0.014202
  C      0.145745    0.098984    0.155538
  C      0.649224   -0.533503   -1.140678
  C      0.901678   -2.050609   -1.270252
  C     -0.349582   -2.839442   -1.307442
  O     -1.455395   -2.473238   -0.536245
  C      0.040886   -2.109697   -2.581563
  C     -0.242744   -0.641671   -2.402657
  O     -0.832985    0.165832   -3.064579
  H      0.896885    2.116588   -0.216320
  H     -0.749314    1.842106   -0.794447
  H     -0.439947    2.046633    0.939831
  H      0.870060   -0.111656    0.953258
  H     -0.790307   -0.381356    0.448906
  H      1.551890   -0.002700   -1.478422
  H      1.863339   -2.521331   -1.108027
  H     -0.196682   -3.917493   -1.380807
  H     -2.251961   -2.650599   -1.048313
  H      0.190398   -2.633655   -3.517862

 Total Charge           Charge          ....    0
 Multiplicity           Mult            ....    1
 Number of Electrons    NEL             ....   68
 Basis Dimension        Dim             ....  339

ORBITAL ENERGIES
----------------

  NO   OCC          E(Eh)            E(eV)
   0   2.0000     -20.579285      -559.9908
   1   2.0000     -20.545932      -559.0832
   2   2.0000     -11.332966      -308.3857
   3   2.0000     -11.313660      -307.8603
   4   2.0000     -11.261358      -306.4371
   5   2.0000     -11.252635      -306.1998
   6   2.0000     -11.248582      -306.0895
   7   2.0000     -11.220089      -305.3141
   8   2.0000     -11.207427      -304.9696
   9   2.0000      -1.395346       -37.9693
  10   2.0000      -1.386561       -37.7302
  11   2.0000      -1.199554       -32.6415
  12   2.0000      -1.054382       -28.6912
  13   2.0000      -0.961594       -26.1663
  14   2.0000      -0.894435       -24.3388
  15   2.0000      -0.831687       -22.6314
  16   2.0000      -0.796367       -21.6703
  17   2.0000      -0.743306       -20.2264
  18   2.0000      -0.699341       -19.0300
  19   2.0000      -0.691162       -18.8075
  20   2.0000      -0.641847       -17.4655
  21   2.0000      -0.630086       -17.1455
  22   2.0000      -0.605975       -16.4894
  23   2.0000      -0.589553       -16.0425
  24   2.0000      -0.566762       -15.4224
  25   2.0000      -0.557655       -15.1746
  26   2.0000      -0.531802       -14.4711
  27   2.0000      -0.514240       -13.9932
  28   2.0000      -0.498593       -13.5674
  29   2.0000      -0.480719       -13.0810
  30   2.0000      -0.468450       -12.7472
  31   2.0000      -0.436066       -11.8660
  32   2.0000      -0.409046       -11.1307
  33   2.0000      -0.387400       -10.5417
  34   0.0000       0.124165         3.3787
  35   0.0000       0.143358         3.9010
  36   0.0000       0.150788         4.1031
  37   0.0000       0.159841         4.3495
  38   0.0000       0.176251         4.7960

MULLIKEN ATOMIC CHARGES
-----------------------
   0 C :   -0.403413
   1 C :   -0.218491
   2 C :   -0.026330
   3 C :   -0.104100
   4 C :    0.034159
   5 O :   -0.462951
   6 C :   -0.178191
   7 C :    0.111057
   8 O :   -0.265363
   9 H :    0.116179
  10 H :    0.150458
  11 H :    0.130722
  12 H :    0.108804
  13 H :    0.144066
  14 H :    0.114988
  15 H :    0.148068
  16 H :    0.120370
  17 H :    0.330043
  18 H :    0.149926
Sum of atomic charges:    0.0000000

LOEWDIN ATOMIC CHARGES
----------------------
   0 C :   -0.314741
   1 C :   -0.270291
   2 C :   -0.179479
   3 C :   -0.118871
   4 C :   -0.299708
   5 O :    0.009115
   6 C :   -0.127016
   7 C :   -0.287384
   8 O :    0.156211
   9 H :    0.119211
  10 H :    0.127183
  11 H :    0.120317
  12 H :    0.137835
  13 H :    0.143881
  14 H :    0.170950
  15 H :    0.141074
  16 H :    0.144659
  17 H :    0.185559
  18 H :    0.141495

  Mayer bond orders larger than 0.1
B(  0-C ,  1-C ) :   0.9114 B(  0-C ,  9-H ) :   0.9368 B(  0-C , 10-H ) :   0.9364
B(  0-C , 11-H ) :   0.9391 B(  1-C ,  2-C ) :   0.8868 B(  1-C , 12-H ) :   0.9357
B(  1-C , 13-H ) :   0.9300 B(  2-C ,  3-C ) :   0.9217 B(  2-C ,  7-C ) :   0.8731
B(  2-C , 14-H ) :   0.8968 B(  3-C ,  4-C ) :   0.8916 B(  3-C ,  6-C ) :   0.8139
B(  3-C , 15-H ) :   0.9130 B(  4-C ,  5-O ) :   1.0317 B(  4-C ,  6-C ) :   0.8586
B(  4-C , 16-H ) :   0.9492 B(  5-O , 17-H ) :   0.8347 B(  6-C ,  7-C ) :   0.9222
B(  6-C , 18-H ) :   0.9104 B(  7-C ,  8-O ) :   2.0242

MP2 TOTAL ENERGY:     -422.304620677 Eh
FINAL SINGLE POINT ENERGY      -422.304620677171

DIPOLE MOMENT
-------------
                                X             Y             Z
Electronic contribution:     -2.08946      -4.17297      -5.51221
Nuclear contribution   :      2.53036       3.14857       5.67492
                        -----------------------------------------
Total Dipole Moment    :      0.44089      -1.02440       0.16271
                        -----------------------------------------
Magnitude (a.u.)       :      1.12706
Magnitude (Debye)      :      2.86476

                             ****ORCA TERMINATED NORMALLY****
TOTAL RUN TIME: 0 days 0 hours 17 minutes 33 seconds 347 msec
