                         Program Version 3.0.3 - RELEASE   -
|  1> ! RI-MP2 RIJK def2-TZVP def2-TZVP/C def2-TZVP/JK TIGHTSCF
|  2> % maxcore 2000
|  3> % mp2 density relaxed end
|  4> *xyz 0 1
|  5>  C        0.0056037699     1.4638544944     0.0226299004
|  6>  C        0.0085663708    -0.0257312196    -0.0030392253
|  7>  N       -0.0535912574    -0.6969273981    -1.1254658504
|  8>  O       -0.0252291315    -2.0378624211    -0.6975693011
|  9>  C        0.0519740194    -2.0091086604     0.6541335012
| 10>  N        0.0968660335    -3.1603587105     1.3803586964
| 11>  C        0.0651668672    -4.2885810831     0.7568463962
| 12>  N        0.1061736498    -5.4531195642     1.4259114109
| 13>  N        0.0757942932    -0.7943079444     1.1331293482
| 14>  H        0.9145152953     1.8360489093     0.5048960585
| 15>  H       -0.0524943853     1.8611882183    -0.9918900357
| 16>  H       -0.8458901528     1.8308723010     0.6035856239
| 17>  H        0.0041047192    -4.3879569378    -0.3298393265
| 18>  H        0.0840083776    -6.3338140372     0.9456925961
| 19>  H        0.1641815410    -5.4413564566     2.4318268871
| 20> *
| 21>
| 22>                          ****END OF INPUT****

CARTESIAN COORDINATES (ANGSTROEM)
---------------------------------
  C      0.005604    1.463854    0.022630
  C      0.008566   -0.025731   -0.003039
  N     -0.053591   -0.696927   -1.125466
  O     -0.025229   -2.037862   -0.697569
  C      0.051974   -2.009109    0.654134
  N      0.096866   -3.160359    1.380359
  C      0.065167   -4.288581    0.756846
  N      0.106174   -5.453120    1.425911
  N      0.075794   -0.794308    1.133129
  H      0.914515    1.836049    0.504896
  H     -0.052494    1.861188   -0.991890
  H     -0.845890    1.830872    0.603586
  H      0.004105   -4.387957   -0.329839
  H      0.084008   -6.333814    0.945693
  H      0.164182   -5.441356    2.431827

 Total Charge           Charge          ....    0
 Multiplicity           Mult            ....    1
 Number of Electrons    NEL             ....   66
 Basis Dimension        Dim             ....  315

ORBITAL ENERGIES
----------------

  NO   OCC          E(Eh)            E(eV)
   0   2.0000     -20.630536      -561.3854
   1   2.0000     -15.619012      -425.0149
   2   2.0000     -15.598615      -424.4599
   3   2.0000     -15.562396      -423.4743
   4   2.0000     -15.543392      -422.9572
   5   2.0000     -11.370987      -309.4203
   6   2.0000     -11.363571      -309.2185
   7   2.0000     -11.299260      -307.4685
   8   2.0000     -11.229030      -305.5574
   9   2.0000      -1.495442       -40.6930
  10   2.0000      -1.312313       -35.7098
  11   2.0000      -1.236673       -33.6516
  12   2.0000      -1.220082       -33.2001
  13   2.0000      -1.120095       -30.4793
  14   2.0000      -0.984352       -26.7856
  15   2.0000      -0.910998       -24.7895
  16   2.0000      -0.823653       -22.4127
  17   2.0000      -0.799869       -21.7656
  18   2.0000      -0.767800       -20.8929
  19   2.0000      -0.702976       -19.1290
  20   2.0000      -0.675736       -18.3877
  21   2.0000      -0.671898       -18.2833
  22   2.0000      -0.623165       -16.9572
  23   2.0000      -0.581272       -15.8172
  24   2.0000      -0.566632       -15.4188
  25   2.0000      -0.553044       -15.0491
  26   2.0000      -0.543893       -14.8001
  27   2.0000      -0.519018       -14.1232
  28   2.0000      -0.459974       -12.5165
  29   2.0000      -0.452267       -12.3068
  30   2.0000      -0.438088       -11.9210
  31   2.0000      -0.429864       -11.6972
  32   2.0000      -0.344752        -9.3812
  33   0.0000       0.100691         2.7400
  34   0.0000       0.112820         3.0700
  35   0.0000       0.153960         4.1895
  36   0.0000       0.156605         4.2614
  37   0.0000       0.186932         5.0867

MULLIKEN ATOMIC CHARGES
-----------------------
   0 C :   -0.424803
   1 C :    0.181100
   2 N :   -0.152431
   3 O :   -0.141246
   4 C :    0.287374
   5 N :   -0.303613
   6 C :    0.158317
   7 N :   -0.439815
   8 N :   -0.293461
   9 H :    0.147529
  10 H :    0.152377
  11 H :    0.147508
  12 H :    0.133865
  13 H :    0.273539
  14 H :    0.273761
Sum of atomic charges:   -0.0000000

LOEWDIN ATOMIC CHARGES
----------------------
   0 C :   -0.267565
   1 C :   -0.391494
   2 N :    0.037072
   3 O :    0.244631
   4 C :   -0.452042
   5 N :    0.100167
   6 C :   -0.298019
   7 N :   -0.001256
   8 N :    0.126815
   9 H :    0.137506
  10 H :    0.136452
  11 H :    0.137507
  12 H :    0.133073
  13 H :    0.175912
  14 H :    0.181240

  Mayer bond orders larger than 0.1
B(  0-C ,  1-C ) :   0.8738 B(  0-C ,  9-H ) :   0.9292 B(  0-C , 10-H ) :   0.9513
B(  0-C , 11-H ) :   0.9291 B(  1-C ,  2-N ) :   1.6616 B(  1-C ,  8-N ) :   1.1957
B(  2-N ,  3-O ) :   0.8623 B(  3-O ,  4-C ) :   1.1001 B(  4-C ,  5-N ) :   1.2233
B(  4-C ,  8-N ) :   1.6236 B(  5-N ,  6-C ) :   1.6042 B(  6-C ,  7-N ) :   1.2130
B(  6-C , 12-H ) :   0.9066 B(  7-N , 13-H ) :   0.8696 B(  7-N , 14-H ) :   0.8531

MP2 TOTAL ENERGY:     -449.402619175 Eh
FINAL SINGLE POINT ENERGY      -449.402619174805

DIPOLE MOMENT
-------------
                                X             Y             Z
Electronic contribution:     -0.03040      -2.62750      -0.64989
Nuclear contribution   :      0.04608       0.86371       0.78929
                        -----------------------------------------
Total Dipole Moment    :      0.01568      -1.76379       0.13939
                        -----------------------------------------
Magnitude (a.u.)       :      1.76936
Magnitude (Debye)      :      4.49736

                             ****ORCA TERMINATED NORMALLY****
TOTAL RUN TIME: 0 days 0 hours 13 minutes 28 seconds 353 msec
