                         Program Version 3.0.3 - RELEASE   -
|  1> ! RI-MP2 RIJK def2-TZVP def2-TZVP/C def2-TZVP/JK TIGHTSCF
|  2> % maxcore 2000
|  3> % mp2 density relaxed end
|  4> *xyz 0 1
|  5>  C       -0.0656496929     1.5384554082    -0.0217879898
|  6>  C       -0.0367087357     0.0247685357     0.0419941386
|  7>  C        0.3603043934    -0.7544241798    -1.2809666471
|  8>  C       -0.7892940029    -1.7123507187    -0.9960723432
|  9>  O       -1.4780641628    -2.4396813201    -1.9495087947
| 10>  C       -0.8640228122    -2.1157369779     0.5053924078
| 11>  C        0.3137916034    -1.8580152339     1.3820230693
| 12>  C        0.7584757450    -0.6166572293     1.1686400287
| 13>  C       -1.3871984591    -0.7834562254     0.0153810680
| 14>  H        0.9434005663     1.9454547988    -0.1534286954
| 15>  H       -0.6776740695     1.8897272643    -0.8590431910
| 16>  H       -0.4791682099     1.9627238879     0.8999750827
| 17>  H        0.1186056230    -0.1557278706    -2.1636525440
| 18>  H        1.3841367216    -1.1373966894    -1.3545406383
| 19>  H       -0.9972640354    -3.2591461845    -2.1108552127
| 20>  H       -1.5710790870    -2.9134806428     0.7030228724
| 21>  H        0.7478985525    -2.5969476311     2.0442728663
| 22>  H        1.6399183103    -0.1592420978     1.6026603569
| 23>  H       -2.3953329180    -0.4056021735     0.1389052055
| 24> *
| 25>
| 26>                          ****END OF INPUT****

CARTESIAN COORDINATES (ANGSTROEM)
---------------------------------
  C     -0.065650    1.538455   -0.021788
  C     -0.036709    0.024769    0.041994
  C      0.360304   -0.754424   -1.280967
  C     -0.789294   -1.712351   -0.996072
  O     -1.478064   -2.439681   -1.949509
  C     -0.864023   -2.115737    0.505392
  C      0.313792   -1.858015    1.382023
  C      0.758476   -0.616657    1.168640
  C     -1.387198   -0.783456    0.015381
  H      0.943401    1.945455   -0.153429
  H     -0.677674    1.889727   -0.859043
  H     -0.479168    1.962724    0.899975
  H      0.118606   -0.155728   -2.163653
  H      1.384137   -1.137397   -1.354541
  H     -0.997264   -3.259146   -2.110855
  H     -1.571079   -2.913481    0.703023
  H      0.747899   -2.596948    2.044273
  H      1.639918   -0.159242    1.602660
  H     -2.395333   -0.405602    0.138905

 Total Charge           Charge          ....    0
 Multiplicity           Mult            ....    1
 Number of Electrons    NEL             ....   66
 Basis Dimension        Dim             ....  339

ORBITAL ENERGIES
----------------

  NO   OCC          E(Eh)            E(eV)
   0   2.0000     -20.567330      -559.6655
   1   2.0000     -11.289250      -307.1961
   2   2.0000     -11.245036      -305.9930
   3   2.0000     -11.232068      -305.6401
   4   2.0000     -11.226513      -305.4889
   5   2.0000     -11.223532      -305.4078
   6   2.0000     -11.223162      -305.3978
   7   2.0000     -11.218197      -305.2627
   8   2.0000     -11.216843      -305.2258
   9   2.0000      -1.378718       -37.5168
  10   2.0000      -1.210403       -32.9367
  11   2.0000      -1.032808       -28.1041
  12   2.0000      -1.024784       -27.8858
  13   2.0000      -0.941234       -25.6123
  14   2.0000      -0.858405       -23.3584
  15   2.0000      -0.795661       -21.6510
  16   2.0000      -0.757889       -20.6232
  17   2.0000      -0.711156       -19.3515
  18   2.0000      -0.700202       -19.0535
  19   2.0000      -0.651424       -17.7261
  20   2.0000      -0.624521       -16.9941
  21   2.0000      -0.598776       -16.2935
  22   2.0000      -0.586144       -15.9498
  23   2.0000      -0.564807       -15.3692
  24   2.0000      -0.552451       -15.0330
  25   2.0000      -0.529090       -14.3973
  26   2.0000      -0.507794       -13.8178
  27   2.0000      -0.495626       -13.4867
  28   2.0000      -0.463631       -12.6160
  29   2.0000      -0.449887       -12.2420
  30   2.0000      -0.407405       -11.0860
  31   2.0000      -0.383813       -10.4441
  32   2.0000      -0.318080        -8.6554
  33   0.0000       0.139587         3.7984
  34   0.0000       0.142627         3.8811
  35   0.0000       0.149842         4.0774
  36   0.0000       0.175731         4.7819
  37   0.0000       0.185746         5.0544

MULLIKEN ATOMIC CHARGES
-----------------------
   0 C :   -0.423864
   1 C :    0.244300
   2 C :   -0.216128
   3 C :    0.150365
   4 O :   -0.450384
   5 C :   -0.179395
   6 C :   -0.151944
   7 C :   -0.283540
   8 C :   -0.174740
   9 H :    0.133712
  10 H :    0.136020
  11 H :    0.136101
  12 H :    0.109614
  13 H :    0.106979
  14 H :    0.327375
  15 H :    0.137560
  16 H :    0.126971
  17 H :    0.124219
  18 H :    0.146776
Sum of atomic charges:    0.0000000

LOEWDIN ATOMIC CHARGES
----------------------
   0 C :   -0.271483
   1 C :   -0.208722
   2 C :   -0.153696
   3 C :   -0.308607
   4 O :    0.030883
   5 C :   -0.155637
   6 C :   -0.138992
   7 C :   -0.121168
   8 C :   -0.083439
   9 H :    0.128685
  10 H :    0.127906
  11 H :    0.128868
  12 H :    0.145169
  13 H :    0.126066
  14 H :    0.186493
  15 H :    0.151298
  16 H :    0.137403
  17 H :    0.138720
  18 H :    0.140251

  Mayer bond orders larger than 0.1
B(  0-C ,  1-C ) :   0.8564 B(  0-C ,  9-H ) :   0.9419 B(  0-C , 10-H ) :   0.9424
B(  0-C , 11-H ) :   0.9417 B(  1-C ,  2-C ) :   0.9023 B(  1-C ,  7-C ) :   0.9125
B(  1-C ,  8-C ) :   0.8558 B(  2-C ,  3-C ) :   1.0117 B(  2-C , 12-H ) :   0.9078
B(  2-C , 13-H ) :   0.8955 B(  3-C ,  4-O ) :   1.0525 B(  3-C ,  5-C ) :   0.8467
B(  3-C ,  8-C ) :   0.8713 B(  4-O , 14-H ) :   0.8350 B(  5-C ,  6-C ) :   0.9325
B(  5-C ,  8-C ) :   0.8680 B(  5-C , 15-H ) :   0.9269 B(  6-C ,  7-C ) :   1.7840
B(  6-C , 16-H ) :   0.9301 B(  7-C , 17-H ) :   0.9277 B(  8-C , 18-H ) :   0.8755

MP2 TOTAL ENERGY:     -385.184755141 Eh
FINAL SINGLE POINT ENERGY      -385.184755141122

DIPOLE MOMENT
-------------
                                X             Y             Z
Electronic contribution:     -1.88504      -4.78052      -0.48734
Nuclear contribution   :      2.26977       4.60881       0.53951
                        -----------------------------------------
Total Dipole Moment    :      0.38473      -0.17171       0.05217
                        -----------------------------------------
Magnitude (a.u.)       :      0.42453
Magnitude (Debye)      :      1.07907

                             ****ORCA TERMINATED NORMALLY****
TOTAL RUN TIME: 0 days 0 hours 19 minutes 27 seconds 297 msec
