                         Program Version 3.0.3 - RELEASE   -
|  1> ! RI-MP2 RIJK def2-TZVP def2-TZVP/C def2-TZVP/JK TIGHTSCF
|  2> % maxcore 2000
|  3> % mp2 density relaxed end
|  4> *xyz 0 1
|  5>  C        0.8578019836    -0.6852038256     1.1376276708
|  6>  C       -0.0193176390    -0.1034717820     0.0179768612
|  7>  N       -1.3867507504    -0.6296573701    -0.0962259834
|  8>  C       -1.4768338176    -2.0524776564    -0.4349359033
|  9>  C       -0.7806056884    -2.3871985924    -1.6733687193
| 10>  C       -0.2096630623    -2.6943976149    -2.6845729248
| 11>  C       -2.2523923703    -0.3210606343     1.0321191111
| 12>  C       -2.3971106957     1.1249195281     1.2386774496
| 13>  N       -2.5150918417     2.2586284295     1.4250934222
| 14>  H        1.8399598843    -0.2031812498     1.1166757954
| 15>  H        0.4335356731    -0.5123509017     2.1320203369
| 16>  H        1.0190121863    -1.7609343238     1.0162237942
| 17>  H       -0.1042604349     0.9806429032     0.1427868921
| 18>  H        0.4624216294    -0.2725297815    -0.9488197148
| 19>  H       -1.1009685702    -2.7102912185     0.3718912542
| 20>  H       -2.5404592238    -2.2982461515    -0.5520235716
| 21>  H        0.2891799541    -2.9597516140    -3.5839760529
| 22>  H       -3.2499898098    -0.7290073294     0.8290905849
| 23>  H       -1.9267769168    -0.7649208649     1.9918956874
| 24> *
| 25>
| 26>                          ****END OF INPUT****

CARTESIAN COORDINATES (ANGSTROEM)
---------------------------------
  C      0.857802   -0.685204    1.137628
  C     -0.019318   -0.103472    0.017977
  N     -1.386751   -0.629657   -0.096226
  C     -1.476834   -2.052478   -0.434936
  C     -0.780606   -2.387199   -1.673369
  C     -0.209663   -2.694398   -2.684573
  C     -2.252392   -0.321061    1.032119
  C     -2.397111    1.124920    1.238677
  N     -2.515092    2.258628    1.425093
  H      1.839960   -0.203181    1.116676
  H      0.433536   -0.512351    2.132020
  H      1.019012   -1.760934    1.016224
  H     -0.104260    0.980643    0.142787
  H      0.462422   -0.272530   -0.948820
  H     -1.100969   -2.710291    0.371891
  H     -2.540459   -2.298246   -0.552024
  H      0.289180   -2.959752   -3.583976
  H     -3.249990   -0.729007    0.829091
  H     -1.926777   -0.764921    1.991896

 Total Charge           Charge          ....    0
 Multiplicity           Mult            ....    1
 Number of Electrons    NEL             ....   66
 Basis Dimension        Dim             ....  339

ORBITAL ENERGIES
----------------

  NO   OCC          E(Eh)            E(eV)
   0   2.0000     -15.581859      -424.0039
   1   2.0000     -15.574277      -423.7976
   2   2.0000     -11.316265      -307.9312
   3   2.0000     -11.300745      -307.5089
   4   2.0000     -11.276706      -306.8548
   5   2.0000     -11.261915      -306.4523
   6   2.0000     -11.246698      -306.0382
   7   2.0000     -11.236677      -305.7655
   8   2.0000     -11.226889      -305.4992
   9   2.0000      -1.268588       -34.5200
  10   2.0000      -1.218162       -33.1479
  11   2.0000      -1.070269       -29.1235
  12   2.0000      -1.037903       -28.2428
  13   2.0000      -0.997401       -27.1407
  14   2.0000      -0.931005       -25.3339
  15   2.0000      -0.834859       -22.7177
  16   2.0000      -0.735617       -20.0172
  17   2.0000      -0.707889       -19.2626
  18   2.0000      -0.694537       -18.8993
  19   2.0000      -0.686695       -18.6859
  20   2.0000      -0.636032       -17.3073
  21   2.0000      -0.614029       -16.7086
  22   2.0000      -0.585679       -15.9371
  23   2.0000      -0.580691       -15.8014
  24   2.0000      -0.562107       -15.2957
  25   2.0000      -0.554051       -15.0765
  26   2.0000      -0.522883       -14.2284
  27   2.0000      -0.501070       -13.6348
  28   2.0000      -0.469867       -12.7857
  29   2.0000      -0.463137       -12.6026
  30   2.0000      -0.408041       -11.1034
  31   2.0000      -0.403542       -10.9809
  32   2.0000      -0.382758       -10.4154
  33   0.0000       0.114856         3.1254
  34   0.0000       0.142036         3.8650
  35   0.0000       0.153040         4.1644
  36   0.0000       0.158194         4.3047
  37   0.0000       0.163522         4.4497

MULLIKEN ATOMIC CHARGES
-----------------------
   0 C :   -0.425895
   1 C :   -0.177163
   2 N :   -0.116368
   3 C :   -0.344337
   4 C :   -0.018811
   5 C :   -0.097706
   6 C :   -0.100525
   7 C :   -0.168519
   8 N :   -0.052238
   9 H :    0.142288
  10 H :    0.131905
  11 H :    0.136848
  12 H :    0.149729
  13 H :    0.147716
  14 H :    0.144910
  15 H :    0.145664
  16 H :    0.195685
  17 H :    0.157132
  18 H :    0.149687
Sum of atomic charges:    0.0000000

LOEWDIN ATOMIC CHARGES
----------------------
   0 C :   -0.322024
   1 C :   -0.300948
   2 N :    0.098874
   3 C :   -0.271619
   4 C :   -0.107913
   5 C :   -0.088322
   6 C :   -0.276526
   7 C :   -0.186215
   8 N :    0.065113
   9 H :    0.129260
  10 H :    0.119918
  11 H :    0.121785
  12 H :    0.142619
  13 H :    0.143367
  14 H :    0.141426
  15 H :    0.155290
  16 H :    0.128897
  17 H :    0.161141
  18 H :    0.145877

  Mayer bond orders larger than 0.1
B(  0-C ,  1-C ) :   0.8982 B(  0-C ,  9-H ) :   0.9346 B(  0-C , 10-H ) :   0.9334
B(  0-C , 11-H ) :   0.9325 B(  1-C ,  2-N ) :   0.9098 B(  1-C , 12-H ) :   0.9328
B(  1-C , 13-H ) :   0.9332 B(  2-N ,  3-C ) :   0.9857 B(  2-N ,  6-C ) :   0.9624
B(  3-C ,  4-C ) :   1.1012 B(  3-C ,  5-C ) :  -0.1172 B(  3-C , 14-H ) :   0.9541
B(  3-C , 15-H ) :   0.8839 B(  4-C ,  5-C ) :   2.6371 B(  5-C , 16-H ) :   0.8911
B(  6-C ,  7-C ) :   0.9217 B(  6-C , 17-H ) :   0.8955 B(  6-C , 18-H ) :   0.9152
B(  7-C ,  8-N ) :   2.8742

MP2 TOTAL ENERGY:     -381.343242514 Eh
FINAL SINGLE POINT ENERGY      -381.343242514473

DIPOLE MOMENT
-------------
                                X             Y             Z
Electronic contribution:     -5.37331       3.32892      -2.02326
Nuclear contribution   :      5.77910      -4.83736       2.00339
                        -----------------------------------------
Total Dipole Moment    :      0.40579      -1.50843      -0.01987
                        -----------------------------------------
Magnitude (a.u.)       :      1.56219
Magnitude (Debye)      :      3.97076

                             ****ORCA TERMINATED NORMALLY****
TOTAL RUN TIME: 0 days 0 hours 17 minutes 15 seconds 34 msec
