                         Program Version 3.0.3 - RELEASE   -
|  1> ! RI-MP2 RIJK def2-TZVP def2-TZVP/C def2-TZVP/JK TIGHTSCF
|  2> % maxcore 2000
|  3> % mp2 density relaxed end
|  4> *xyz 0 1
|  5>  O       -0.0766208983     1.3850264559     0.0061758304
|  6>  C        0.0168334260     0.0050671057    -0.0104386987
|  7>  C        0.6735172935    -0.9759879143     0.9965214841
|  8>  N        0.0174553259    -1.9136833081    -0.0270377183
|  9>  C       -1.1820348390    -0.9498820129     0.0415970069
| 10>  C        0.5683548589    -0.9579301061    -1.0949375935
| 11>  H        0.8118800880     1.7558239420    -0.0352283156
| 12>  H        1.7644195667    -1.0517476176     1.0165957371
| 13>  H        0.2430747341    -1.0530093629     1.9980862636
| 14>  H       -1.7450088905    -1.0213587715     0.9753596917
| 15>  H       -1.8358938299    -1.0057533664    -0.8320777725
| 16>  H        0.0395569950    -1.0180618196    -2.0494541211
| 17>  H        1.6516765097    -1.0323887841    -1.2256335141
| 18> *
| 19>
| 20>                          ****END OF INPUT****

CARTESIAN COORDINATES (ANGSTROEM)
---------------------------------
  O     -0.076621    1.385026    0.006176
  C      0.016833    0.005067   -0.010439
  C      0.673517   -0.975988    0.996521
  N      0.017455   -1.913683   -0.027038
  C     -1.182035   -0.949882    0.041597
  C      0.568355   -0.957930   -1.094938
  H      0.811880    1.755824   -0.035228
  H      1.764420   -1.051748    1.016596
  H      0.243075   -1.053009    1.998086
  H     -1.745009   -1.021359    0.975360
  H     -1.835894   -1.005753   -0.832078
  H      0.039557   -1.018062   -2.049454
  H      1.651677   -1.032389   -1.225634

 Total Charge           Charge          ....    0
 Multiplicity           Mult            ....    1
 Number of Electrons    NEL             ....   46
 Basis Dimension        Dim             ....  228

ORBITAL ENERGIES
----------------

  NO   OCC          E(Eh)            E(eV)
   0   2.0000     -20.574118      -559.8502
   1   2.0000     -15.574828      -423.8126
   2   2.0000     -11.308327      -307.7152
   3   2.0000     -11.261631      -306.4446
   4   2.0000     -11.261622      -306.4443
   5   2.0000     -11.259634      -306.3902
   6   2.0000      -1.388409       -37.7805
   7   2.0000      -1.293892       -35.2086
   8   2.0000      -0.930955       -25.3326
   9   2.0000      -0.930167       -25.3111
  10   2.0000      -0.909626       -24.7522
  11   2.0000      -0.765761       -20.8374
  12   2.0000      -0.717412       -19.5218
  13   2.0000      -0.643538       -17.5116
  14   2.0000      -0.642732       -17.4896
  15   2.0000      -0.614909       -16.7325
  16   2.0000      -0.580574       -15.7982
  17   2.0000      -0.515303       -14.0221
  18   2.0000      -0.486171       -13.2294
  19   2.0000      -0.484030       -13.1711
  20   2.0000      -0.460769       -12.5382
  21   2.0000      -0.430356       -11.7106
  22   2.0000      -0.393891       -10.7183
  23   0.0000       0.129345         3.5197
  24   0.0000       0.156441         4.2570
  25   0.0000       0.179676         4.8892
  26   0.0000       0.182793         4.9741
  27   0.0000       0.199601         5.4314

MULLIKEN ATOMIC CHARGES
-----------------------
   0 O :   -0.446747
   1 C :    0.123653
   2 C :   -0.173128
   3 N :   -0.205165
   4 C :   -0.148107
   5 C :   -0.173121
   6 H :    0.323339
   7 H :    0.115595
   8 H :    0.117784
   9 H :    0.116260
  10 H :    0.116261
  11 H :    0.117783
  12 H :    0.115594
Sum of atomic charges:    0.0000000

LOEWDIN ATOMIC CHARGES
----------------------
   0 O :    0.016742
   1 C :   -0.390069
   2 C :   -0.221124
   3 N :    0.092058
   4 C :   -0.204672
   5 C :   -0.221123
   6 H :    0.181421
   7 H :    0.122224
   8 H :    0.124962
   9 H :    0.126197
  10 H :    0.126197
  11 H :    0.124962
  12 H :    0.122224

  Mayer bond orders larger than 0.1
B(  0-O ,  1-C ) :   0.9898 B(  0-O ,  6-H ) :   0.8346 B(  1-C ,  2-C ) :   0.9167
B(  1-C ,  4-C ) :   0.9424 B(  1-C ,  5-C ) :   0.9167 B(  2-C ,  3-N ) :   0.9216
B(  2-C ,  7-H ) :   0.9225 B(  2-C ,  8-H ) :   0.9276 B(  3-N ,  4-C ) :   0.9172
B(  3-N ,  5-C ) :   0.9216 B(  4-C ,  9-H ) :   0.9266 B(  4-C , 10-H ) :   0.9266
B(  5-C , 11-H ) :   0.9276 B(  5-C , 12-H ) :   0.9225

MP2 TOTAL ENERGY:     -285.940809965 Eh
FINAL SINGLE POINT ENERGY      -285.940809965072

DIPOLE MOMENT
-------------
                                X             Y             Z
Electronic contribution:     -0.26012       1.24187       0.02378
Nuclear contribution   :      0.80333      -0.76156      -0.04691
                        -----------------------------------------
Total Dipole Moment    :      0.54321       0.48032      -0.02312
                        -----------------------------------------
Magnitude (a.u.)       :      0.72548
Magnitude (Debye)      :      1.84402

                             ****ORCA TERMINATED NORMALLY****
TOTAL RUN TIME: 0 days 0 hours 4 minutes 47 seconds 157 msec
