                         Program Version 3.0.3 - RELEASE   -
|  1> ! RI-MP2 RIJK def2-TZVP def2-TZVP/C def2-TZVP/JK TIGHTSCF
|  2> % maxcore 2000
|  3> % mp2 density relaxed end
|  4> *xyz 0 1
|  5>  C       -0.2060963268     1.5344518652     0.2081832524
|  6>  C       -0.0482920802     0.0336642495    -0.0115886732
|  7>  C        0.8575457420    -0.6089927779     1.0440543265
|  8>  O       -1.3613490031    -0.5145574284     0.0078604744
|  9>  C       -1.4895909282    -1.8094151836    -0.5394837897
| 10>  C       -2.9769964764    -2.1523491457    -0.6372839455
| 11>  C       -3.7237580495    -1.1911591509    -1.5681740655
| 12>  C       -3.1513075228    -3.6083066228    -1.0690259198
| 13>  O       -4.5335005186    -3.9286965199    -1.0039454729
| 14>  H        0.7655164864     2.0360664570     0.1728119291
| 15>  H       -0.8521617287     1.9670151131    -0.5601859875
| 16>  H       -0.6601862936     1.7279381230     1.1853064730
| 17>  H        0.3918088434    -0.1386745718    -1.0092104923
| 18>  H        0.4323716722    -0.4665543623     2.0429523774
| 19>  H        0.9831676935    -1.6820974027     0.8741789298
| 20>  H        1.8520998674    -0.1519939513     1.0230099202
| 21>  H       -1.0245665798    -1.8450261347    -1.5413751672
| 22>  H       -0.9734453344    -2.5565695850     0.0848646583
| 23>  H       -3.3982453758    -2.0631076159     0.3725838949
| 24>  H       -3.3257581542    -1.2541893291    -2.5891967780
| 25>  H       -4.7859674989    -1.4413719906    -1.6049137818
| 26>  H       -3.6092918761    -0.1610122429    -1.2248256551
| 27>  H       -2.7625478863    -3.7403461206    -2.0931113056
| 28>  H       -2.5643126410    -4.2665804836    -0.4076529315
| 29>  H       -4.6510123206    -4.8220987879    -1.3385845304
| 30> *
| 31>
| 32>                          ****END OF INPUT****

CARTESIAN COORDINATES (ANGSTROEM)
---------------------------------
  C     -0.206096    1.534452    0.208183
  C     -0.048292    0.033664   -0.011589
  C      0.857546   -0.608993    1.044054
  O     -1.361349   -0.514557    0.007860
  C     -1.489591   -1.809415   -0.539484
  C     -2.976996   -2.152349   -0.637284
  C     -3.723758   -1.191159   -1.568174
  C     -3.151308   -3.608307   -1.069026
  O     -4.533501   -3.928697   -1.003945
  H      0.765516    2.036066    0.172812
  H     -0.852162    1.967015   -0.560186
  H     -0.660186    1.727938    1.185306
  H      0.391809   -0.138675   -1.009210
  H      0.432372   -0.466554    2.042952
  H      0.983168   -1.682097    0.874179
  H      1.852100   -0.151994    1.023010
  H     -1.024567   -1.845026   -1.541375
  H     -0.973445   -2.556570    0.084865
  H     -3.398245   -2.063108    0.372584
  H     -3.325758   -1.254189   -2.589197
  H     -4.785967   -1.441372   -1.604914
  H     -3.609292   -0.161012   -1.224826
  H     -2.762548   -3.740346   -2.093111
  H     -2.564313   -4.266580   -0.407653
  H     -4.651012   -4.822099   -1.338585

 Total Charge           Charge          ....    0
 Multiplicity           Mult            ....    1
 Number of Electrons    NEL             ....   74
 Basis Dimension        Dim             ....  375

ORBITAL ENERGIES
----------------

  NO   OCC          E(Eh)            E(eV)
   0   2.0000     -20.553989      -559.3025
   1   2.0000     -20.546410      -559.0962
   2   2.0000     -11.277958      -306.8888
   3   2.0000     -11.273657      -306.7718
   4   2.0000     -11.269931      -306.6704
   5   2.0000     -11.219896      -305.3089
   6   2.0000     -11.213618      -305.1381
   7   2.0000     -11.209780      -305.0336
   8   2.0000     -11.197628      -304.7030
   9   2.0000      -1.369728       -37.2722
  10   2.0000      -1.358272       -36.9605
  11   2.0000      -1.079506       -29.3749
  12   2.0000      -1.033986       -28.1362
  13   2.0000      -0.937601       -25.5134
  14   2.0000      -0.917969       -24.9792
  15   2.0000      -0.896771       -24.4024
  16   2.0000      -0.792183       -21.5564
  17   2.0000      -0.771666       -20.9981
  18   2.0000      -0.698016       -18.9940
  19   2.0000      -0.673631       -18.3304
  20   2.0000      -0.657706       -17.8971
  21   2.0000      -0.628571       -17.1043
  22   2.0000      -0.616687       -16.7809
  23   2.0000      -0.580343       -15.7919
  24   2.0000      -0.578389       -15.7388
  25   2.0000      -0.561064       -15.2673
  26   2.0000      -0.540190       -14.6993
  27   2.0000      -0.535181       -14.5630
  28   2.0000      -0.528636       -14.3849
  29   2.0000      -0.511448       -13.9172
  30   2.0000      -0.501915       -13.6578
  31   2.0000      -0.479508       -13.0481
  32   2.0000      -0.465038       -12.6543
  33   2.0000      -0.461162       -12.5489
  34   2.0000      -0.453112       -12.3298
  35   2.0000      -0.439833       -11.9685
  36   2.0000      -0.412413       -11.2223
  37   0.0000       0.132556         3.6070
  38   0.0000       0.143032         3.8921
  39   0.0000       0.161875         4.4048
  40   0.0000       0.168093         4.5740
  41   0.0000       0.177003         4.8165

MULLIKEN ATOMIC CHARGES
-----------------------
   0 C :   -0.364320
   1 C :    0.090163
   2 C :   -0.396783
   3 O :   -0.291025
   4 C :   -0.107618
   5 C :    0.018995
   6 C :   -0.413491
   7 C :   -0.080761
   8 O :   -0.466358
   9 H :    0.120072
  10 H :    0.134857
  11 H :    0.127784
  12 H :    0.062881
  13 H :    0.127747
  14 H :    0.129808
  15 H :    0.128003
  16 H :    0.089174
  17 H :    0.095503
  18 H :    0.091485
  19 H :    0.102808
  20 H :    0.151652
  21 H :    0.146547
  22 H :    0.091362
  23 H :    0.096622
  24 H :    0.314893
Sum of atomic charges:   -0.0000000

LOEWDIN ATOMIC CHARGES
----------------------
   0 C :   -0.293729
   1 C :   -0.377225
   2 C :   -0.300795
   3 O :    0.183608
   4 C :   -0.306790
   5 C :   -0.291321
   6 C :   -0.293331
   7 C :   -0.330116
   8 O :   -0.045822
   9 H :    0.124285
  10 H :    0.124937
  11 H :    0.126294
  12 H :    0.131118
  13 H :    0.126126
  14 H :    0.119747
  15 H :    0.125891
  16 H :    0.120345
  17 H :    0.119756
  18 H :    0.158622
  19 H :    0.120561
  20 H :    0.127520
  21 H :    0.126173
  22 H :    0.116180
  23 H :    0.115973
  24 H :    0.171994

  Mayer bond orders larger than 0.1
B(  0-C ,  1-C ) :   0.9305 B(  0-C ,  9-H ) :   0.9337 B(  0-C , 10-H ) :   0.9379
B(  0-C , 11-H ) :   0.9340 B(  1-C ,  2-C ) :   0.9119 B(  1-C ,  3-O ) :   0.9258
B(  1-C , 12-H ) :   0.9336 B(  2-C , 13-H ) :   0.9318 B(  2-C , 14-H ) :   0.9376
B(  2-C , 15-H ) :   0.9312 B(  3-O ,  4-C ) :   0.9437 B(  4-C ,  5-C ) :   0.9418
B(  4-C , 16-H ) :   0.9181 B(  4-C , 17-H ) :   0.9198 B(  5-C ,  6-C ) :   0.9210
B(  5-C ,  7-C ) :   0.9228 B(  5-C , 18-H ) :   0.9157 B(  6-C , 19-H ) :   0.9288
B(  6-C , 20-H ) :   0.9353 B(  6-C , 21-H ) :   0.9357 B(  7-C ,  8-O ) :   1.0113
B(  7-C , 22-H ) :   0.9182 B(  7-C , 23-H ) :   0.9313 B(  8-O , 24-H ) :   0.8485

MP2 TOTAL ENERGY:     -425.922370890 Eh
FINAL SINGLE POINT ENERGY      -425.922370889956

DIPOLE MOMENT
-------------
                                X             Y             Z
Electronic contribution:     -4.65681      -3.71916      -0.18836
Nuclear contribution   :      5.40187       3.15298      -0.13144
                        -----------------------------------------
Total Dipole Moment    :      0.74507      -0.56617      -0.31980
                        -----------------------------------------
Magnitude (a.u.)       :      0.98891
Magnitude (Debye)      :      2.51361

                             ****ORCA TERMINATED NORMALLY****
TOTAL RUN TIME: 0 days 0 hours 17 minutes 43 seconds 400 msec
