                         Program Version 3.0.3 - RELEASE   -
|  1> ! RI-MP2 RIJK def2-TZVP def2-TZVP/C def2-TZVP/JK TIGHTSCF
|  2> % maxcore 2000
|  3> % mp2 density relaxed end
|  4> *xyz 0 1
|  5>  C       -0.1085087919     1.5109243804     0.0986252866
|  6>  C        0.0025634044    -0.0018191268     0.0165703676
|  7>  C        1.1045550172    -0.6414536069    -0.8867963152
|  8>  C        1.1683752597    -1.7959699127     0.1556100428
|  9>  C        0.6716166998    -0.7666655625     1.2009119518
| 10>  C        0.0614782238    -2.8308784795    -0.0981357847
| 11>  C       -1.1884723508    -2.1502363477    -0.7082474173
| 12>  C       -1.3587272392    -0.6636846502    -0.3021683736
| 13>  O       -2.2946302035    -0.4748100641     0.7570276018
| 14>  H        0.8425347256     1.9633251148     0.3990002255
| 15>  H       -0.3910192797     1.9374069709    -0.8714194162
| 16>  H       -0.8751542753     1.8004703973     0.8239829845
| 17>  H        0.8588197055    -0.8778850699    -1.9263196381
| 18>  H        2.0170484447    -0.0382933037    -0.8690875114
| 19>  H        2.1354921006    -2.2723256434     0.3332578546
| 20>  H        1.4895665568    -0.1805264009     1.6300804466
| 21>  H        0.0482127734    -1.1350570342     2.0252463178
| 22>  H        0.4141617018    -3.6155926494    -0.7767364113
| 23>  H       -0.1799822243    -3.3309815359     0.8484778885
| 24>  H       -1.1068429432    -2.1917296612    -1.7991441159
| 25>  H       -2.1075110505    -2.6859871598    -0.4539429504
| 26>  H       -1.8145168146    -0.1272881315    -1.1430160579
| 27>  H       -1.9434221401    -0.9020282431     1.5452680641
| 28> *
| 29>
| 30>                          ****END OF INPUT****

CARTESIAN COORDINATES (ANGSTROEM)
---------------------------------
  C     -0.108509    1.510924    0.098625
  C      0.002563   -0.001819    0.016570
  C      1.104555   -0.641454   -0.886796
  C      1.168375   -1.795970    0.155610
  C      0.671617   -0.766666    1.200912
  C      0.061478   -2.830878   -0.098136
  C     -1.188472   -2.150236   -0.708247
  C     -1.358727   -0.663685   -0.302168
  O     -2.294630   -0.474810    0.757028
  H      0.842535    1.963325    0.399000
  H     -0.391019    1.937407   -0.871419
  H     -0.875154    1.800470    0.823983
  H      0.858820   -0.877885   -1.926320
  H      2.017048   -0.038293   -0.869088
  H      2.135492   -2.272326    0.333258
  H      1.489567   -0.180526    1.630080
  H      0.048213   -1.135057    2.025246
  H      0.414162   -3.615593   -0.776736
  H     -0.179982   -3.330982    0.848478
  H     -1.106843   -2.191730   -1.799144
  H     -2.107511   -2.685987   -0.453943
  H     -1.814517   -0.127288   -1.143016
  H     -1.943422   -0.902028    1.545268

 Total Charge           Charge          ....    0
 Multiplicity           Mult            ....    1
 Number of Electrons    NEL             ....   70
 Basis Dimension        Dim             ....  363

ORBITAL ENERGIES
----------------

  NO   OCC          E(Eh)            E(eV)
   0   2.0000     -20.546981      -559.1118
   1   2.0000     -11.273238      -306.7604
   2   2.0000     -11.233240      -305.6720
   3   2.0000     -11.228999      -305.5566
   4   2.0000     -11.221805      -305.3608
   5   2.0000     -11.221352      -305.3485
   6   2.0000     -11.220385      -305.3222
   7   2.0000     -11.217767      -305.2510
   8   2.0000     -11.206782      -304.9520
   9   2.0000      -1.353930       -36.8423
  10   2.0000      -1.162762       -31.6404
  11   2.0000      -1.030128       -28.0312
  12   2.0000      -1.000842       -27.2343
  13   2.0000      -0.922475       -25.1018
  14   2.0000      -0.899829       -24.4856
  15   2.0000      -0.827656       -22.5217
  16   2.0000      -0.789570       -21.4853
  17   2.0000      -0.721070       -19.6213
  18   2.0000      -0.670547       -18.2465
  19   2.0000      -0.648360       -17.6428
  20   2.0000      -0.630688       -17.1619
  21   2.0000      -0.609220       -16.5777
  22   2.0000      -0.587753       -15.9936
  23   2.0000      -0.565713       -15.3938
  24   2.0000      -0.552000       -15.0207
  25   2.0000      -0.536022       -14.5859
  26   2.0000      -0.533552       -14.5187
  27   2.0000      -0.516498       -14.0546
  28   2.0000      -0.495370       -13.4797
  29   2.0000      -0.492410       -13.3992
  30   2.0000      -0.459031       -12.4909
  31   2.0000      -0.442824       -12.0498
  32   2.0000      -0.430640       -11.7183
  33   2.0000      -0.406645       -11.0654
  34   2.0000      -0.406093       -11.0504
  35   0.0000       0.127712         3.4752
  36   0.0000       0.152352         4.1457
  37   0.0000       0.158497         4.3129
  38   0.0000       0.160985         4.3806
  39   0.0000       0.190392         5.1808

MULLIKEN ATOMIC CHARGES
-----------------------
   0 C :   -0.427275
   1 C :    0.243616
   2 C :   -0.351755
   3 C :    0.091527
   4 C :   -0.396823
   5 C :   -0.320085
   6 C :   -0.217512
   7 C :   -0.015406
   8 O :   -0.463060
   9 H :    0.123264
  10 H :    0.126490
  11 H :    0.146429
  12 H :    0.119562
  13 H :    0.117184
  14 H :    0.111683
  15 H :    0.119646
  16 H :    0.099763
  17 H :    0.120066
  18 H :    0.114683
  19 H :    0.123148
  20 H :    0.134266
  21 H :    0.092749
  22 H :    0.307841
Sum of atomic charges:    0.0000000

LOEWDIN ATOMIC CHARGES
----------------------
   0 C :   -0.276375
   1 C :   -0.263164
   2 C :   -0.173214
   3 C :   -0.219773
   4 C :   -0.184210
   5 C :   -0.242486
   6 C :   -0.240330
   7 C :   -0.294942
   8 O :   -0.018646
   9 H :    0.122904
  10 H :    0.126402
  11 H :    0.131462
  12 H :    0.128539
  13 H :    0.139450
  14 H :    0.134680
  15 H :    0.139799
  16 H :    0.118920
  17 H :    0.137544
  18 H :    0.135817
  19 H :    0.140510
  20 H :    0.140274
  21 H :    0.148721
  22 H :    0.168117

  Mayer bond orders larger than 0.1
B(  0-C ,  1-C ) :   0.8662 B(  0-C ,  9-H ) :   0.9365 B(  0-C , 10-H ) :   0.9374
B(  0-C , 11-H ) :   0.9423 B(  1-C ,  2-C ) :   0.8742 B(  1-C ,  4-C ) :   0.8508
B(  1-C ,  7-C ) :   0.8972 B(  2-C ,  3-C ) :   0.8989 B(  2-C , 12-H ) :   0.9217
B(  2-C , 13-H ) :   0.9161 B(  3-C ,  4-C ) :   0.8590 B(  3-C ,  5-C ) :   0.8738
B(  3-C , 14-H ) :   0.9303 B(  4-C ,  7-C ) :   0.1010 B(  4-C , 15-H ) :   0.9144
B(  4-C , 16-H ) :   0.9363 B(  5-C ,  6-C ) :   0.9341 B(  5-C , 17-H ) :   0.9284
B(  5-C , 18-H ) :   0.9377 B(  6-C ,  7-C ) :   0.9169 B(  6-C , 19-H ) :   0.9277
B(  6-C , 20-H ) :   0.9310 B(  7-C ,  8-O ) :   0.9286 B(  7-C , 21-H ) :   0.9188
B(  8-O , 22-H ) :   0.8420

MP2 TOTAL ENERGY:     -387.629993991 Eh
FINAL SINGLE POINT ENERGY      -387.629993991411

DIPOLE MOMENT
-------------
                                X             Y             Z
Electronic contribution:     -2.24598      -0.58310       0.79133
Nuclear contribution   :      2.83922       0.25851      -0.79071
                        -----------------------------------------
Total Dipole Moment    :      0.59324      -0.32459       0.00062
                        -----------------------------------------
Magnitude (a.u.)       :      0.67623
Magnitude (Debye)      :      1.71884

                             ****ORCA TERMINATED NORMALLY****
TOTAL RUN TIME: 0 days 0 hours 22 minutes 41 seconds 142 msec
