                         Program Version 3.0.3 - RELEASE   -
|  1> ! RI-MP2 RIJK def2-TZVP def2-TZVP/C def2-TZVP/JK TIGHTSCF
|  2> % maxcore 2000
|  3> % mp2 density relaxed end
|  4> *xyz 0 1
|  5>  C        0.2035569605     1.4606198991     0.2366130702
|  6>  C        0.0582870571     0.0165785096     0.1365744757
|  7>  C       -0.0671601738    -1.1792369025     0.0615968955
|  8>  C       -0.1747473788    -2.6078771250    -0.0519599797
|  9>  O       -0.8226486067    -3.3237786855     1.0225535854
| 10>  C       -1.4640933948    -3.3075102995    -0.2660249808
| 11>  C       -2.7691241025    -2.5535593678    -0.3398074557
| 12>  C       -1.4430318554    -4.6752814775    -0.9253330912
| 13>  O       -2.3054599222    -5.5739109849    -0.2491147817
| 14>  H        1.2544343723     1.7600882526     0.1605258003
| 15>  H       -0.3487073786     1.9730911599    -0.5587257540
| 16>  H       -0.1781582932     1.8271447302     1.1957604100
| 17>  H        0.7258224034    -3.1040294567    -0.4159679632
| 18>  H       -2.7253071283    -1.6437532266     0.2601250933
| 19>  H       -2.9934162370    -2.2809572172    -1.3766484178
| 20>  H       -3.5794379257    -3.1907631980     0.0251906653
| 21>  H       -1.8089636369    -4.6116850852    -1.9555478214
| 22>  H       -0.4107524024    -5.0545843569    -0.9525386446
| 23>  H       -2.0011306569    -5.6054577580     0.6656587945
| 24> *
| 25>
| 26>                          ****END OF INPUT****

CARTESIAN COORDINATES (ANGSTROEM)
---------------------------------
  C      0.203557    1.460620    0.236613
  C      0.058287    0.016579    0.136574
  C     -0.067160   -1.179237    0.061597
  C     -0.174747   -2.607877   -0.051960
  O     -0.822649   -3.323779    1.022554
  C     -1.464093   -3.307510   -0.266025
  C     -2.769124   -2.553559   -0.339807
  C     -1.443032   -4.675281   -0.925333
  O     -2.305460   -5.573911   -0.249115
  H      1.254434    1.760088    0.160526
  H     -0.348707    1.973091   -0.558726
  H     -0.178158    1.827145    1.195760
  H      0.725822   -3.104029   -0.415968
  H     -2.725307   -1.643753    0.260125
  H     -2.993416   -2.280957   -1.376648
  H     -3.579438   -3.190763    0.025191
  H     -1.808964   -4.611685   -1.955548
  H     -0.410752   -5.054584   -0.952539
  H     -2.001131   -5.605458    0.665659

 Total Charge           Charge          ....    0
 Multiplicity           Mult            ....    1
 Number of Electrons    NEL             ....   68
 Basis Dimension        Dim             ....  339

ORBITAL ENERGIES
----------------

  NO   OCC          E(Eh)            E(eV)
   0   2.0000     -20.575396      -559.8850
   1   2.0000     -20.559820      -559.4612
   2   2.0000     -11.313510      -307.8562
   3   2.0000     -11.300677      -307.5070
   4   2.0000     -11.284933      -307.0787
   5   2.0000     -11.254922      -306.2620
   6   2.0000     -11.240363      -305.8658
   7   2.0000     -11.228051      -305.5308
   8   2.0000     -11.221810      -305.3610
   9   2.0000      -1.420084       -38.6425
  10   2.0000      -1.363019       -37.0896
  11   2.0000      -1.072674       -29.1889
  12   2.0000      -1.034771       -28.1576
  13   2.0000      -0.993446       -27.0330
  14   2.0000      -0.943256       -25.6673
  15   2.0000      -0.908286       -24.7157
  16   2.0000      -0.797843       -21.7104
  17   2.0000      -0.721800       -19.6412
  18   2.0000      -0.692598       -18.8466
  19   2.0000      -0.669536       -18.2190
  20   2.0000      -0.635851       -17.3024
  21   2.0000      -0.624318       -16.9886
  22   2.0000      -0.596879       -16.2419
  23   2.0000      -0.595462       -16.2034
  24   2.0000      -0.584079       -15.8936
  25   2.0000      -0.571087       -15.5401
  26   2.0000      -0.547318       -14.8933
  27   2.0000      -0.544542       -14.8177
  28   2.0000      -0.507192       -13.8014
  29   2.0000      -0.477008       -12.9800
  30   2.0000      -0.466577       -12.6962
  31   2.0000      -0.439995       -11.9729
  32   2.0000      -0.385606       -10.4929
  33   2.0000      -0.367832       -10.0092
  34   0.0000       0.132054         3.5934
  35   0.0000       0.145235         3.9521
  36   0.0000       0.155871         4.2415
  37   0.0000       0.167354         4.5539
  38   0.0000       0.173017         4.7080

MULLIKEN ATOMIC CHARGES
-----------------------
   0 C :   -0.473440
   1 C :    0.086831
   2 C :    0.045287
   3 C :   -0.214587
   4 O :   -0.334789
   5 C :    0.163716
   6 C :   -0.424594
   7 C :    0.021867
   8 O :   -0.472428
   9 H :    0.165167
  10 H :    0.164017
  11 H :    0.167336
  12 H :    0.128778
  13 H :    0.152124
  14 H :    0.129161
  15 H :    0.153463
  16 H :    0.108711
  17 H :    0.106267
  18 H :    0.327111
Sum of atomic charges:    0.0000000

LOEWDIN ATOMIC CHARGES
----------------------
   0 C :   -0.290700
   1 C :   -0.081421
   2 C :   -0.065823
   3 C :   -0.235479
   4 O :    0.178363
   5 C :   -0.329709
   6 C :   -0.260943
   7 C :   -0.305350
   8 O :   -0.039248
   9 H :    0.142944
  10 H :    0.142330
  11 H :    0.144303
  12 H :    0.153363
  13 H :    0.136510
  14 H :    0.133576
  15 H :    0.136084
  16 H :    0.135268
  17 H :    0.124669
  18 H :    0.181262

  Mayer bond orders larger than 0.1
B(  0-C ,  1-C ) :   0.8711 B(  0-C ,  9-H ) :   0.9481 B(  0-C , 10-H ) :   0.9431
B(  0-C , 11-H ) :   0.9395 B(  1-C ,  2-C ) :   2.6695 B(  1-C ,  3-C ) :  -0.1437
B(  2-C ,  3-C ) :   1.0567 B(  3-C ,  4-O ) :   0.9400 B(  3-C ,  5-C ) :   0.9852
B(  3-C , 12-H ) :   0.9194 B(  4-O ,  5-C ) :   0.8518 B(  5-C ,  6-C ) :   0.9065
B(  5-C ,  7-C ) :   0.9265 B(  6-C , 13-H ) :   0.9347 B(  6-C , 14-H ) :   0.9275
B(  6-C , 15-H ) :   0.9362 B(  7-C ,  8-O ) :   0.9177 B(  7-C , 16-H ) :   0.9215
B(  7-C , 17-H ) :   0.9176 B(  8-O , 18-H ) :   0.8357

MP2 TOTAL ENERGY:     -422.270107281 Eh
FINAL SINGLE POINT ENERGY      -422.270107280930

DIPOLE MOMENT
-------------
                                X             Y             Z
Electronic contribution:      2.03737      -3.93821       2.04183
Nuclear contribution   :     -1.65681       4.79903      -2.43040
                        -----------------------------------------
Total Dipole Moment    :      0.38056       0.86083      -0.38856
                        -----------------------------------------
Magnitude (a.u.)       :      1.01825
Magnitude (Debye)      :      2.58818

                             ****ORCA TERMINATED NORMALLY****
TOTAL RUN TIME: 0 days 0 hours 15 minutes 57 seconds 218 msec
