                         Program Version 3.0.3 - RELEASE   -
|  1> ! RI-MP2 RIJK def2-TZVP def2-TZVP/C def2-TZVP/JK TIGHTSCF
|  2> % maxcore 2000
|  3> % mp2 density relaxed end
|  4> *xyz 0 1
|  5>  C        0.3786036355     1.2622735081    -0.3822714545
|  6>  C        0.1200018177    -0.1919661636     0.0429437123
|  7>  C        0.7850315809    -0.4268254574     1.4102062744
|  8>  C       -1.3847366482    -0.5847375269     0.0627020320
|  9>  C       -2.1682003865    -0.0516583456    -1.1476092137
| 10>  O       -2.5480585346     1.2945625141    -0.8740467437
| 11>  C       -1.5597870915    -2.1138487121     0.1756918036
| 12>  C       -2.9451321588    -2.5497883900     0.6597092215
| 13>  O       -1.2648059572    -2.6517742806    -1.1168755571
| 14>  H        1.4559915489     1.4616666262    -0.3834503177
| 15>  H       -0.0042238508     1.4832752473    -1.3802643074
| 16>  H       -0.0958331091     1.9663713674     0.3087264338
| 17>  H        0.6031057609    -0.8501899193    -0.6919609196
| 18>  H        0.3343372414     0.2183538597     2.1743408970
| 19>  H        0.7032944808    -1.4603350782     1.7585300553
| 20>  H        1.8519662826    -0.1848914009     1.3643219800
| 21>  H       -1.8480354649    -0.1312006234     0.9492740225
| 22>  H       -1.5492490441    -0.1200505271    -2.0527780283
| 23>  H       -3.0587535113    -0.6680077679    -1.3275855557
| 24>  H       -2.9515100821     1.6556367842    -1.6688466844
| 25>  H       -0.8263584529    -2.4946007498     0.9006065040
| 26>  H       -3.7401724261    -2.2011594482    -0.0049924946
| 27>  H       -3.0045468377    -3.6438392798     0.7074477463
| 28>  H       -3.1414628823    -2.1656855600     1.6659926503
| 29>  H       -1.3489354809    -3.6087886661    -1.0680580065
| 30> *
| 31>
| 32>                          ****END OF INPUT****

CARTESIAN COORDINATES (ANGSTROEM)
---------------------------------
  C      0.378604    1.262274   -0.382271
  C      0.120002   -0.191966    0.042944
  C      0.785032   -0.426825    1.410206
  C     -1.384737   -0.584738    0.062702
  C     -2.168200   -0.051658   -1.147609
  O     -2.548059    1.294563   -0.874047
  C     -1.559787   -2.113849    0.175692
  C     -2.945132   -2.549788    0.659709
  O     -1.264806   -2.651774   -1.116876
  H      1.455992    1.461667   -0.383450
  H     -0.004224    1.483275   -1.380264
  H     -0.095833    1.966371    0.308726
  H      0.603106   -0.850190   -0.691961
  H      0.334337    0.218354    2.174341
  H      0.703294   -1.460335    1.758530
  H      1.851966   -0.184891    1.364322
  H     -1.848035   -0.131201    0.949274
  H     -1.549249   -0.120051   -2.052778
  H     -3.058754   -0.668008   -1.327586
  H     -2.951510    1.655637   -1.668847
  H     -0.826358   -2.494601    0.900607
  H     -3.740172   -2.201159   -0.004992
  H     -3.004547   -3.643839    0.707448
  H     -3.141463   -2.165686    1.665993
  H     -1.348935   -3.608789   -1.068058

 Total Charge           Charge          ....    0
 Multiplicity           Mult            ....    1
 Number of Electrons    NEL             ....   74
 Basis Dimension        Dim             ....  375

ORBITAL ENERGIES
----------------

  NO   OCC          E(Eh)            E(eV)
   0   2.0000     -20.553265      -559.2828
   1   2.0000     -20.546378      -559.0954
   2   2.0000     -11.278407      -306.9011
   3   2.0000     -11.263524      -306.4961
   4   2.0000     -11.219451      -305.2968
   5   2.0000     -11.218528      -305.2717
   6   2.0000     -11.217349      -305.2396
   7   2.0000     -11.205015      -304.9040
   8   2.0000     -11.196146      -304.6626
   9   2.0000      -1.359960       -37.0064
  10   2.0000      -1.349776       -36.7293
  11   2.0000      -1.090814       -29.6825
  12   2.0000      -1.021730       -27.8027
  13   2.0000      -0.963031       -26.2054
  14   2.0000      -0.916809       -24.9476
  15   2.0000      -0.867849       -23.6154
  16   2.0000      -0.801934       -21.8217
  17   2.0000      -0.752545       -20.4778
  18   2.0000      -0.702554       -19.1175
  19   2.0000      -0.675814       -18.3898
  20   2.0000      -0.644720       -17.5437
  21   2.0000      -0.619576       -16.8595
  22   2.0000      -0.606328       -16.4990
  23   2.0000      -0.581115       -15.8129
  24   2.0000      -0.569748       -15.5036
  25   2.0000      -0.548772       -14.9329
  26   2.0000      -0.543842       -14.7987
  27   2.0000      -0.536655       -14.6031
  28   2.0000      -0.520556       -14.1650
  29   2.0000      -0.513502       -13.9731
  30   2.0000      -0.502019       -13.6606
  31   2.0000      -0.485431       -13.2092
  32   2.0000      -0.465399       -12.6642
  33   2.0000      -0.451790       -12.2938
  34   2.0000      -0.442073       -12.0294
  35   2.0000      -0.430955       -11.7269
  36   2.0000      -0.415006       -11.2929
  37   0.0000       0.129096         3.5129
  38   0.0000       0.143317         3.8998
  39   0.0000       0.157675         4.2905
  40   0.0000       0.168872         4.5952
  41   0.0000       0.189741         5.1631

MULLIKEN ATOMIC CHARGES
-----------------------
   0 C :   -0.331588
   1 C :   -0.098656
   2 C :   -0.415130
   3 C :    0.033297
   4 C :   -0.108152
   5 O :   -0.479245
   6 C :    0.062628
   7 C :   -0.414780
   8 O :   -0.477698
   9 H :    0.120552
  10 H :    0.115233
  11 H :    0.120692
  12 H :    0.103419
  13 H :    0.123522
  14 H :    0.120815
  15 H :    0.130750
  16 H :    0.088425
  17 H :    0.118528
  18 H :    0.100658
  19 H :    0.313016
  20 H :    0.077000
  21 H :    0.133830
  22 H :    0.122991
  23 H :    0.130905
  24 H :    0.308988
Sum of atomic charges:    0.0000000

LOEWDIN ATOMIC CHARGES
----------------------
   0 C :   -0.293421
   1 C :   -0.280038
   2 C :   -0.297789
   3 C :   -0.219471
   4 C :   -0.320365
   5 O :   -0.049106
   6 C :   -0.348262
   7 C :   -0.303177
   8 O :   -0.019373
   9 H :    0.119862
  10 H :    0.120232
  11 H :    0.124946
  12 H :    0.155417
  13 H :    0.123127
  14 H :    0.114930
  15 H :    0.123222
  16 H :    0.163469
  17 H :    0.122061
  18 H :    0.117292
  19 H :    0.169770
  20 H :    0.135310
  21 H :    0.122608
  22 H :    0.119383
  23 H :    0.127891
  24 H :    0.171481

  Mayer bond orders larger than 0.1
B(  0-C ,  1-C ) :   0.9337 B(  0-C ,  9-H ) :   0.9360 B(  0-C , 10-H ) :   0.9362
B(  0-C , 11-H ) :   0.9285 B(  1-C ,  2-C ) :   0.9107 B(  1-C ,  3-C ) :   0.9321
B(  1-C , 12-H ) :   0.9259 B(  2-C , 13-H ) :   0.9335 B(  2-C , 14-H ) :   0.9394
B(  2-C , 15-H ) :   0.9418 B(  3-C ,  4-C ) :   0.8801 B(  3-C ,  6-C ) :   0.8672
B(  3-C , 16-H ) :   0.9214 B(  4-C ,  5-O ) :   0.9745 B(  4-C , 17-H ) :   0.9369
B(  4-C , 18-H ) :   0.9267 B(  5-O , 19-H ) :   0.8493 B(  6-C ,  7-C ) :   0.9273
B(  6-C ,  8-O ) :   0.9485 B(  6-C , 20-H ) :   0.9356 B(  7-C , 21-H ) :   0.9336
B(  7-C , 22-H ) :   0.9359 B(  7-C , 23-H ) :   0.9345 B(  8-O , 24-H ) :   0.8466

MP2 TOTAL ENERGY:     -425.930788189 Eh
FINAL SINGLE POINT ENERGY      -425.930788188927

DIPOLE MOMENT
-------------
                                X             Y             Z
Electronic contribution:     -2.73617      -0.60364      -3.59522
Nuclear contribution   :      2.45350      -0.03394       3.50244
                        -----------------------------------------
Total Dipole Moment    :     -0.28267      -0.63758      -0.09278
                        -----------------------------------------
Magnitude (a.u.)       :      0.70358
Magnitude (Debye)      :      1.78835

                             ****ORCA TERMINATED NORMALLY****
TOTAL RUN TIME: 0 days 0 hours 21 minutes 25 seconds 476 msec
