                         Program Version 3.0.3 - RELEASE   -
|  1> ! RI-MP2 RIJK def2-TZVP def2-TZVP/C def2-TZVP/JK TIGHTSCF
|  2> % maxcore 2000
|  3> % mp2 density relaxed end
|  4> *xyz 0 1
|  5>  C       -0.0644357440     1.4856556589     0.0438972846
|  6>  C       -0.0152361294    -0.0222124195     0.0352248571
|  7>  C        1.3141778906    -0.7201020099    -0.2305115807
|  8>  C        0.6624541258    -0.8127647820     1.1311445484
|  9>  O        1.2375016771    -0.1289392948     2.2052351708
| 10>  C       -0.1757684819    -2.0432399522     1.4327714916
| 11>  C       -1.0791194098    -2.2196095156     0.1884746054
| 12>  O       -2.3556612938    -2.7731503633     0.4675357414
| 13>  C       -1.2623900481    -0.7951498916    -0.3714314671
| 14>  H        0.8226346746     1.9001591475     0.5297769995
| 15>  H       -0.1194904608     1.8885616446    -0.9739204313
| 16>  H       -0.9428967074     1.8450899156     0.5920217711
| 17>  H        1.3639286960    -1.5881289351    -0.8814232990
| 18>  H        2.1800058462    -0.0680737918    -0.2884734930
| 19>  H        2.0545314653    -0.5792281148     2.4443349180
| 20>  H        0.4178445587    -2.9392358317     1.6540876915
| 21>  H       -0.8082501595    -1.8312808621     2.3025206582
| 22>  H       -0.5608798270    -2.8442434598    -0.5540621671
| 23>  H       -2.2311194934    -3.6853995438     0.7471434481
| 24>  H       -2.1427148417    -0.3534522901     0.1115706780
| 25>  H       -1.4466765576    -0.7974422983    -1.4509205457
| 26> *
| 27>
| 28>                          ****END OF INPUT****

CARTESIAN COORDINATES (ANGSTROEM)
---------------------------------
  C     -0.064436    1.485656    0.043897
  C     -0.015236   -0.022212    0.035225
  C      1.314178   -0.720102   -0.230512
  C      0.662454   -0.812765    1.131145
  O      1.237502   -0.128939    2.205235
  C     -0.175768   -2.043240    1.432771
  C     -1.079119   -2.219610    0.188475
  O     -2.355661   -2.773150    0.467536
  C     -1.262390   -0.795150   -0.371431
  H      0.822635    1.900159    0.529777
  H     -0.119490    1.888562   -0.973920
  H     -0.942897    1.845090    0.592022
  H      1.363929   -1.588129   -0.881423
  H      2.180006   -0.068074   -0.288473
  H      2.054531   -0.579228    2.444335
  H      0.417845   -2.939236    1.654088
  H     -0.808250   -1.831281    2.302521
  H     -0.560880   -2.844243   -0.554062
  H     -2.231119   -3.685400    0.747143
  H     -2.142715   -0.353452    0.111571
  H     -1.446677   -0.797442   -1.450921

 Total Charge           Charge          ....    0
 Multiplicity           Mult            ....    1
 Number of Electrons    NEL             ....   70
 Basis Dimension        Dim             ....  351

ORBITAL ENERGIES
----------------

  NO   OCC          E(Eh)            E(eV)
   0   2.0000     -20.562721      -559.5401
   1   2.0000     -20.555883      -559.3540
   2   2.0000     -11.282339      -307.0081
   3   2.0000     -11.280865      -306.9679
   4   2.0000     -11.232434      -305.6501
   5   2.0000     -11.221803      -305.3608
   6   2.0000     -11.221701      -305.3580
   7   2.0000     -11.217262      -305.2372
   8   2.0000     -11.210755      -305.0602
   9   2.0000      -1.373763       -37.3820
  10   2.0000      -1.361507       -37.0485
  11   2.0000      -1.166932       -31.7538
  12   2.0000      -1.022554       -27.8251
  13   2.0000      -0.982146       -26.7255
  14   2.0000      -0.928981       -25.2788
  15   2.0000      -0.839694       -22.8492
  16   2.0000      -0.780411       -21.2361
  17   2.0000      -0.739085       -20.1115
  18   2.0000      -0.699737       -19.0408
  19   2.0000      -0.679034       -18.4775
  20   2.0000      -0.642215       -17.4756
  21   2.0000      -0.625362       -17.0170
  22   2.0000      -0.600733       -16.3468
  23   2.0000      -0.579585       -15.7713
  24   2.0000      -0.569892       -15.5076
  25   2.0000      -0.559822       -15.2335
  26   2.0000      -0.537125       -14.6159
  27   2.0000      -0.532173       -14.4812
  28   2.0000      -0.513901       -13.9840
  29   2.0000      -0.494212       -13.4482
  30   2.0000      -0.491311       -13.3693
  31   2.0000      -0.454410       -12.3651
  32   2.0000      -0.432693       -11.7742
  33   2.0000      -0.389623       -10.6022
  34   2.0000      -0.378801       -10.3077
  35   0.0000       0.128788         3.5045
  36   0.0000       0.142673         3.8823
  37   0.0000       0.157471         4.2850
  38   0.0000       0.169772         4.6197
  39   0.0000       0.189427         5.1546

MULLIKEN ATOMIC CHARGES
-----------------------
   0 C :   -0.428231
   1 C :    0.111010
   2 C :   -0.371590
   3 C :    0.135566
   4 O :   -0.459707
   5 C :   -0.212143
   6 C :    0.026568
   7 O :   -0.456385
   8 C :   -0.184712
   9 H :    0.143493
  10 H :    0.131788
  11 H :    0.129490
  12 H :    0.121732
  13 H :    0.138667
  14 H :    0.323600
  15 H :    0.106866
  16 H :    0.113247
  17 H :    0.080420
  18 H :    0.314363
  19 H :    0.116381
  20 H :    0.119576
Sum of atomic charges:    0.0000000

LOEWDIN ATOMIC CHARGES
----------------------
   0 C :   -0.264982
   1 C :   -0.228898
   2 C :   -0.178959
   3 C :   -0.330783
   4 O :    0.027079
   5 C :   -0.208740
   6 C :   -0.326711
   7 O :   -0.021244
   8 C :   -0.184070
   9 H :    0.132615
  10 H :    0.126775
  11 H :    0.128932
  12 H :    0.132038
  13 H :    0.140604
  14 H :    0.181877
  15 H :    0.131335
  16 H :    0.149727
  17 H :    0.129678
  18 H :    0.174004
  19 H :    0.151140
  20 H :    0.138583

  Mayer bond orders larger than 0.1
B(  0-C ,  1-C ) :   0.8917 B(  0-C ,  9-H ) :   0.9335 B(  0-C , 10-H ) :   0.9414
B(  0-C , 11-H ) :   0.9371 B(  1-C ,  2-C ) :   0.8567 B(  1-C ,  3-C ) :   0.8167
B(  1-C ,  8-C ) :   0.9305 B(  2-C ,  3-C ) :   0.9090 B(  2-C , 12-H ) :   0.8998
B(  2-C , 13-H ) :   0.9295 B(  3-C ,  4-O ) :   1.0361 B(  3-C ,  5-C ) :   0.9443
B(  4-O , 14-H ) :   0.8389 B(  5-C ,  6-C ) :   0.9250 B(  5-C , 15-H ) :   0.9035
B(  5-C , 16-H ) :   0.9064 B(  6-C ,  7-O ) :   1.0382 B(  6-C ,  8-C ) :   0.9113
B(  6-C , 17-H ) :   0.9567 B(  7-O , 18-H ) :   0.8481 B(  8-C , 19-H ) :   0.9179
B(  8-C , 20-H ) :   0.9258

MP2 TOTAL ENERGY:     -423.531036972 Eh
FINAL SINGLE POINT ENERGY      -423.531036971508

DIPOLE MOMENT
-------------
                                X             Y             Z
Electronic contribution:     -0.28521      -2.47754       2.38460
Nuclear contribution   :      1.01482       1.78040      -2.48954
                        -----------------------------------------
Total Dipole Moment    :      0.72961      -0.69714      -0.10494
                        -----------------------------------------
Magnitude (a.u.)       :      1.01456
Magnitude (Debye)      :      2.57882

                             ****ORCA TERMINATED NORMALLY****
TOTAL RUN TIME: 0 days 0 hours 18 minutes 55 seconds 615 msec
