                         Program Version 3.0.3 - RELEASE   -
|  1> ! RI-MP2 RIJK def2-TZVP def2-TZVP/C def2-TZVP/JK TIGHTSCF
|  2> % maxcore 2000
|  3> % mp2 density relaxed end
|  4> *xyz 0 1
|  5>  C       -0.3760488857     1.4776845944     0.8212224357
|  6>  C       -0.2708977255     0.0165249522     0.4247498644
|  7>  C        0.7348205148    -0.2998253352    -0.7153179912
|  8>  C        1.5171939564    -1.1134883398     0.3120378577
|  9>  N        0.5534879157    -0.7458928432     1.4381792129
| 10>  C        0.7075014356    -2.1552978332     0.9797648394
| 11>  C       -0.4053456663    -2.9451527616     0.3238588956
| 12>  C        1.4099909119    -2.9175509530     2.0969968254
| 13>  O        0.5539707464    -3.0760507681     3.2136192685
| 14>  H        0.6173529357     1.9102112764     0.9779822116
| 15>  H       -0.8858419897     2.0534966542     0.0412393251
| 16>  H       -0.9396140386     1.5832035467     1.7535288090
| 17>  H       -1.2732684098    -0.4053258833     0.2980897939
| 18>  H        0.3706160453    -0.8369165062    -1.5957600601
| 19>  H        1.2725389529     0.5908316711    -1.0478677721
| 20>  H        2.5937569494    -1.0530379954     0.4494766066
| 21>  H       -0.9513069781    -2.3895056083    -0.4391758498
| 22>  H        0.0124579255    -3.8375012937    -0.1548883311
| 23>  H       -1.1144902795    -3.2800108760     1.0868614503
| 24>  H        1.6822465791    -3.9251674907     1.7650266269
| 25>  H        2.3343103714    -2.3897198859     2.3756351918
| 26>  H        0.2728510231    -2.1802479215     3.4401579593
| 27> *
| 28>
| 29>                          ****END OF INPUT****

CARTESIAN COORDINATES (ANGSTROEM)
---------------------------------
  C     -0.376049    1.477685    0.821222
  C     -0.270898    0.016525    0.424750
  C      0.734821   -0.299825   -0.715318
  C      1.517194   -1.113488    0.312038
  N      0.553488   -0.745893    1.438179
  C      0.707501   -2.155298    0.979765
  C     -0.405346   -2.945153    0.323859
  C      1.409991   -2.917551    2.096997
  O      0.553971   -3.076051    3.213619
  H      0.617353    1.910211    0.977982
  H     -0.885842    2.053497    0.041239
  H     -0.939614    1.583204    1.753529
  H     -1.273268   -0.405326    0.298090
  H      0.370616   -0.836917   -1.595760
  H      1.272539    0.590832   -1.047868
  H      2.593757   -1.053038    0.449477
  H     -0.951307   -2.389506   -0.439176
  H      0.012458   -3.837501   -0.154888
  H     -1.114490   -3.280011    1.086861
  H      1.682247   -3.925167    1.765027
  H      2.334310   -2.389720    2.375635
  H      0.272851   -2.180248    3.440158

 Total Charge           Charge          ....    0
 Multiplicity           Mult            ....    1
 Number of Electrons    NEL             ....   70
 Basis Dimension        Dim             ....  357

ORBITAL ENERGIES
----------------

  NO   OCC          E(Eh)            E(eV)
   0   2.0000     -20.544825      -559.0531
   1   2.0000     -15.558468      -423.3674
   2   2.0000     -11.271259      -306.7066
   3   2.0000     -11.266906      -306.5881
   4   2.0000     -11.265021      -306.5368
   5   2.0000     -11.262906      -306.4792
   6   2.0000     -11.233787      -305.6869
   7   2.0000     -11.221427      -305.3505
   8   2.0000     -11.216522      -305.2171
   9   2.0000      -1.354045       -36.8454
  10   2.0000      -1.288482       -35.0614
  11   2.0000      -1.061633       -28.8885
  12   2.0000      -0.990202       -26.9448
  13   2.0000      -0.966531       -26.3006
  14   2.0000      -0.926911       -25.2225
  15   2.0000      -0.863667       -23.5016
  16   2.0000      -0.758896       -20.6506
  17   2.0000      -0.740861       -20.1598
  18   2.0000      -0.691817       -18.8253
  19   2.0000      -0.664651       -18.0861
  20   2.0000      -0.643147       -17.5009
  21   2.0000      -0.614602       -16.7242
  22   2.0000      -0.599678       -16.3181
  23   2.0000      -0.573696       -15.6110
  24   2.0000      -0.566332       -15.4107
  25   2.0000      -0.551831       -15.0161
  26   2.0000      -0.542576       -14.7643
  27   2.0000      -0.532195       -14.4818
  28   2.0000      -0.508005       -13.8235
  29   2.0000      -0.491420       -13.3722
  30   2.0000      -0.472135       -12.8475
  31   2.0000      -0.446633       -12.1535
  32   2.0000      -0.432351       -11.7649
  33   2.0000      -0.414749       -11.2859
  34   2.0000      -0.369939       -10.0666
  35   0.0000       0.134804         3.6682
  36   0.0000       0.155239         4.2243
  37   0.0000       0.158148         4.3034
  38   0.0000       0.168617         4.5883
  39   0.0000       0.186694         5.0802

MULLIKEN ATOMIC CHARGES
-----------------------
   0 C :   -0.411107
   1 C :    0.019393
   2 C :   -0.256505
   3 C :   -0.107546
   4 N :   -0.315325
   5 C :    0.126094
   6 C :   -0.410568
   7 C :    0.007913
   8 O :   -0.480061
   9 H :    0.128743
  10 H :    0.128877
  11 H :    0.132237
  12 H :    0.100869
  13 H :    0.126470
  14 H :    0.126495
  15 H :    0.124010
  16 H :    0.137063
  17 H :    0.135764
  18 H :    0.156354
  19 H :    0.104146
  20 H :    0.102700
  21 H :    0.323983
Sum of atomic charges:    0.0000000

LOEWDIN ATOMIC CHARGES
----------------------
   0 C :   -0.295673
   1 C :   -0.273770
   2 C :   -0.213712
   3 C :   -0.177401
   4 N :    0.137780
   5 C :   -0.313199
   6 C :   -0.266644
   7 C :   -0.301704
   8 O :   -0.044358
   9 H :    0.126642
  10 H :    0.125466
  11 H :    0.126610
  12 H :    0.136309
  13 H :    0.129795
  14 H :    0.139764
  15 H :    0.133392
  16 H :    0.126361
  17 H :    0.133760
  18 H :    0.136771
  19 H :    0.131220
  20 H :    0.124665
  21 H :    0.177924

  Mayer bond orders larger than 0.1
B(  0-C ,  1-C ) :   0.9084 B(  0-C ,  9-H ) :   0.9402 B(  0-C , 10-H ) :   0.9388
B(  0-C , 11-H ) :   0.9380 B(  1-C ,  2-C ) :   0.9297 B(  1-C ,  4-N ) :   0.9132
B(  1-C , 12-H ) :   0.9338 B(  2-C ,  3-C ) :   0.9266 B(  2-C , 13-H ) :   0.9186
B(  2-C , 14-H ) :   0.9266 B(  3-C ,  4-N ) :   0.8951 B(  3-C ,  5-C ) :   0.9079
B(  3-C , 15-H ) :   0.8930 B(  4-N ,  5-C ) :   0.7826 B(  5-C ,  6-C ) :   0.8852
B(  5-C ,  7-C ) :   0.9330 B(  6-C , 16-H ) :   0.9365 B(  6-C , 17-H ) :   0.9296
B(  6-C , 18-H ) :   0.9358 B(  7-C ,  8-O ) :   0.9170 B(  7-C , 19-H ) :   0.9253
B(  7-C , 20-H ) :   0.9130 B(  8-O , 21-H ) :   0.8295

MP2 TOTAL ENERGY:     -403.624459564 Eh
FINAL SINGLE POINT ENERGY      -403.624459563869

DIPOLE MOMENT
-------------
                                X             Y             Z
Electronic contribution:      2.05546      -2.46582       3.20719
Nuclear contribution   :     -2.05338       2.92458      -4.18302
                        -----------------------------------------
Total Dipole Moment    :      0.00208       0.45875      -0.97583
                        -----------------------------------------
Magnitude (a.u.)       :      1.07829
Magnitude (Debye)      :      2.74079

                             ****ORCA TERMINATED NORMALLY****
TOTAL RUN TIME: 0 days 0 hours 21 minutes 3 seconds 381 msec
