                         Program Version 3.0.3 - RELEASE   -
|  1> ! RI-MP2 RIJK def2-TZVP def2-TZVP/C def2-TZVP/JK TIGHTSCF
|  2> % maxcore 2000
|  3> % mp2 density relaxed end
|  4> *xyz 0 1
|  5>  O       -0.1990784822     1.3564234712     0.0875723649
|  6>  C        0.0110562244    -0.0445815801    -0.0235050624
|  7>  C        0.7697642884    -0.4017031364    -1.2286027690
|  8>  C        1.4008034122    -0.6720271408    -2.2142424190
|  9>  C        0.6615260833    -0.6013227359     1.2155910471
| 10>  C        0.2730993702    -1.5007977954     2.1567738676
| 11>  C        1.3650230456    -1.5129112841     3.0662409428
| 12>  N        2.3203173503    -0.6918315325     2.7082064154
| 13>  O        1.8751865594    -0.1113072384     1.5220728590
| 14>  H        0.6689343935     1.7758110219     0.1267657640
| 15>  H       -0.9910155129    -0.4819487715    -0.0876741820
| 16>  H        1.9574052678    -0.9141299535    -3.0861642695
| 17>  H       -0.6444354660    -2.0628910698     2.1995337374
| 18>  H        1.4847322060    -2.0902234849     3.9721775237
| 19> *
| 20>
| 21>                          ****END OF INPUT****

CARTESIAN COORDINATES (ANGSTROEM)
---------------------------------
  O     -0.199078    1.356423    0.087572
  C      0.011056   -0.044582   -0.023505
  C      0.769764   -0.401703   -1.228603
  C      1.400803   -0.672027   -2.214242
  C      0.661526   -0.601323    1.215591
  C      0.273099   -1.500798    2.156774
  C      1.365023   -1.512911    3.066241
  N      2.320317   -0.691832    2.708206
  O      1.875187   -0.111307    1.522073
  H      0.668934    1.775811    0.126766
  H     -0.991016   -0.481949   -0.087674
  H      1.957405   -0.914130   -3.086164
  H     -0.644435   -2.062891    2.199534
  H      1.484732   -2.090223    3.972178

 Total Charge           Charge          ....    0
 Multiplicity           Mult            ....    1
 Number of Electrons    NEL             ....   64
 Basis Dimension        Dim             ....  309

ORBITAL ENERGIES
----------------

  NO   OCC          E(Eh)            E(eV)
   0   2.0000     -20.652398      -561.9803
   1   2.0000     -20.585177      -560.1512
   2   2.0000     -15.631209      -425.3468
   3   2.0000     -11.346257      -308.7473
   4   2.0000     -11.329927      -308.3030
   5   2.0000     -11.288968      -307.1884
   6   2.0000     -11.251181      -306.1602
   7   2.0000     -11.249216      -306.1067
   8   2.0000     -11.245992      -306.0190
   9   2.0000      -1.504256       -40.9329
  10   2.0000      -1.393244       -37.9121
  11   2.0000      -1.175623       -31.9903
  12   2.0000      -1.106494       -30.1092
  13   2.0000      -1.055914       -28.7329
  14   2.0000      -0.972342       -26.4588
  15   2.0000      -0.842070       -22.9139
  16   2.0000      -0.814861       -22.1735
  17   2.0000      -0.765513       -20.8307
  18   2.0000      -0.747578       -20.3426
  19   2.0000      -0.705790       -19.2055
  20   2.0000      -0.669021       -18.2050
  21   2.0000      -0.650883       -17.7114
  22   2.0000      -0.634488       -17.2653
  23   2.0000      -0.606733       -16.5101
  24   2.0000      -0.576875       -15.6976
  25   2.0000      -0.561438       -15.2775
  26   2.0000      -0.501321       -13.6416
  27   2.0000      -0.487659       -13.2699
  28   2.0000      -0.436841       -11.8870
  29   2.0000      -0.417838       -11.3700
  30   2.0000      -0.409961       -11.1556
  31   2.0000      -0.371870       -10.1191
  32   0.0000       0.102835         2.7983
  33   0.0000       0.134039         3.6474
  34   0.0000       0.153553         4.1784
  35   0.0000       0.159858         4.3500
  36   0.0000       0.168393         4.5822

MULLIKEN ATOMIC CHARGES
-----------------------
   0 O :   -0.443790
   1 C :    0.026514
   2 C :   -0.072230
   3 C :   -0.138177
   4 C :    0.158515
   5 C :   -0.206696
   6 C :   -0.070783
   7 N :   -0.124238
   8 O :   -0.113599
   9 H :    0.334112
  10 H :    0.136962
  11 H :    0.198902
  12 H :    0.159656
  13 H :    0.154852
Sum of atomic charges:    0.0000000

LOEWDIN ATOMIC CHARGES
----------------------
   0 O :    0.010271
   1 C :   -0.308479
   2 C :   -0.084944
   3 C :   -0.069734
   4 C :   -0.250961
   5 C :   -0.162268
   6 C :   -0.261989
   7 N :    0.042309
   8 O :    0.299115
   9 H :    0.185785
  10 H :    0.175773
  11 H :    0.130694
  12 H :    0.150603
  13 H :    0.143825

  Mayer bond orders larger than 0.1
B(  0-O ,  1-C ) :   0.9004 B(  0-O ,  9-H ) :   0.8321 B(  1-C ,  2-C ) :   1.1163
B(  1-C ,  4-C ) :   0.9061 B(  1-C , 10-H ) :   0.9224 B(  2-C ,  3-C ) :   2.6110
B(  3-C , 11-H ) :   0.8976 B(  4-C ,  5-C ) :   1.4734 B(  4-C ,  7-N ) :   0.1016
B(  4-C ,  8-O ) :   1.1198 B(  5-C ,  6-C ) :   1.2259 B(  5-C , 12-H ) :   0.9060
B(  6-C ,  7-N ) :   1.5886 B(  6-C , 13-H ) :   0.9267 B(  7-N ,  8-O ) :   0.8950

MP2 TOTAL ENERGY:     -435.899370402 Eh
FINAL SINGLE POINT ENERGY      -435.899370401841

DIPOLE MOMENT
-------------
                                X             Y             Z
Electronic contribution:      1.62504       0.87921       0.78883
Nuclear contribution   :     -2.07891      -1.58976      -0.96595
                        -----------------------------------------
Total Dipole Moment    :     -0.45387      -0.71055      -0.17712
                        -----------------------------------------
Magnitude (a.u.)       :      0.86154
Magnitude (Debye)      :      2.18987

                             ****ORCA TERMINATED NORMALLY****
TOTAL RUN TIME: 0 days 0 hours 14 minutes 57 seconds 927 msec
