                         Program Version 3.0.3 - RELEASE   -
|  1> ! RI-MP2 RIJK def2-TZVP def2-TZVP/C def2-TZVP/JK TIGHTSCF
|  2> % maxcore 2000
|  3> % mp2 density relaxed end
|  4> *xyz 0 1
|  5>  O        0.0605704580     0.0672088445     0.0156534500
|  6>  C        0.0024884662     1.2561553377    -0.0446761069
|  7>  C       -1.1036882946     2.2773852966     0.0574337217
|  8>  C       -0.1017520743     3.2013996908     0.8047321621
|  9>  C        1.0342921479     2.4146461370     0.0516387637
| 10>  O        0.7826469102     3.1684575063    -1.1713832126
| 11>  C       -0.4764436300     3.5259569305    -0.5971842926
| 12>  C       -1.2564086139     4.5856675466    -1.1513770922
| 13>  N       -1.9013250882     5.4419616660    -1.5836605847
| 14>  H       -2.1666740191     2.1635720069     0.2124156072
| 15>  H       -0.1923429412     3.7069513818     1.7536365514
| 16>  H        2.0826048390     2.2977835155     0.3064669029
| 17> *
| 18>
| 19>                          ****END OF INPUT****

CARTESIAN COORDINATES (ANGSTROEM)
---------------------------------
  O      0.060570    0.067209    0.015653
  C      0.002488    1.256155   -0.044676
  C     -1.103688    2.277385    0.057434
  C     -0.101752    3.201400    0.804732
  C      1.034292    2.414646    0.051639
  O      0.782647    3.168458   -1.171383
  C     -0.476444    3.525957   -0.597184
  C     -1.256409    4.585668   -1.151377
  N     -1.901325    5.441962   -1.583661
  H     -2.166674    2.163572    0.212416
  H     -0.192343    3.706951    1.753637
  H      2.082605    2.297784    0.306467

 Total Charge           Charge          ....    0
 Multiplicity           Mult            ....    1
 Number of Electrons    NEL             ....   62
 Basis Dimension        Dim             ....  297

ORBITAL ENERGIES
----------------

  NO   OCC          E(Eh)            E(eV)
   0   2.0000     -20.617887      -561.0412
   1   2.0000     -20.582016      -560.0651
   2   2.0000     -15.606432      -424.6726
   3   2.0000     -11.384608      -309.7909
   4   2.0000     -11.374801      -309.5241
   5   2.0000     -11.352013      -308.9040
   6   2.0000     -11.315832      -307.9194
   7   2.0000     -11.306955      -307.6779
   8   2.0000     -11.305104      -307.6275
   9   2.0000      -1.472386       -40.0657
  10   2.0000      -1.424912       -38.7738
  11   2.0000      -1.248996       -33.9869
  12   2.0000      -1.213708       -33.0267
  13   2.0000      -1.042633       -28.3715
  14   2.0000      -0.931699       -25.3528
  15   2.0000      -0.880559       -23.9612
  16   2.0000      -0.803494       -21.8642
  17   2.0000      -0.773277       -21.0419
  18   2.0000      -0.698728       -19.0134
  19   2.0000      -0.690248       -18.7826
  20   2.0000      -0.658428       -17.9167
  21   2.0000      -0.637070       -17.3356
  22   2.0000      -0.622997       -16.9526
  23   2.0000      -0.588746       -16.0206
  24   2.0000      -0.563295       -15.3280
  25   2.0000      -0.537916       -14.6374
  26   2.0000      -0.515276       -14.0214
  27   2.0000      -0.506014       -13.7693
  28   2.0000      -0.461125       -12.5478
  29   2.0000      -0.454109       -12.3569
  30   2.0000      -0.416557       -11.3351
  31   0.0000       0.102441         2.7876
  32   0.0000       0.127159         3.4602
  33   0.0000       0.132626         3.6089
  34   0.0000       0.144589         3.9345
  35   0.0000       0.148704         4.0464

MULLIKEN ATOMIC CHARGES
-----------------------
   0 O :   -0.236031
   1 C :    0.165312
   2 C :   -0.151253
   3 C :   -0.179027
   4 C :    0.083008
   5 O :   -0.286595
   6 C :    0.343463
   7 C :   -0.262512
   8 N :   -0.022872
   9 H :    0.181343
  10 H :    0.195821
  11 H :    0.169345
Sum of atomic charges:    0.0000000

LOEWDIN ATOMIC CHARGES
----------------------
   0 O :    0.182784
   1 C :   -0.288449
   2 C :   -0.068133
   3 C :   -0.056616
   4 C :   -0.146493
   5 O :    0.218903
   6 C :   -0.264297
   7 C :   -0.129697
   8 N :    0.105077
   9 H :    0.155525
  10 H :    0.149908
  11 H :    0.141489

  Mayer bond orders larger than 0.1
B(  0-O ,  1-C ) :   2.0432 B(  1-C ,  2-C ) :   0.9102 B(  1-C ,  4-C ) :   0.8597
B(  2-C ,  3-C ) :   0.8101 B(  2-C ,  6-C ) :   0.8012 B(  2-C ,  9-H ) :   0.8942
B(  3-C ,  4-C ) :   0.9004 B(  3-C ,  6-C ) :   0.8691 B(  3-C , 10-H ) :   0.8647
B(  4-C ,  5-O ) :   0.8565 B(  4-C , 11-H ) :   0.8932 B(  5-O ,  6-C ) :   0.9919
B(  6-C ,  7-C ) :   0.8797 B(  7-C ,  8-N ) :   2.8440

MP2 TOTAL ENERGY:     -434.700167181 Eh
FINAL SINGLE POINT ENERGY      -434.700167180732

DIPOLE MOMENT
-------------
                                X             Y             Z
Electronic contribution:     -0.27820       0.30565      -1.96838
Nuclear contribution   :      0.59592      -0.34333       3.25799
                        -----------------------------------------
Total Dipole Moment    :      0.31773      -0.03768       1.28961
                        -----------------------------------------
Magnitude (a.u.)       :      1.32870
Magnitude (Debye)      :      3.37730

                             ****ORCA TERMINATED NORMALLY****
TOTAL RUN TIME: 0 days 0 hours 14 minutes 25 seconds 819 msec
