                         Program Version 3.0.3 - RELEASE   -
|  1> ! RI-MP2 RIJK def2-TZVP def2-TZVP/C def2-TZVP/JK TIGHTSCF
|  2> % maxcore 2000
|  3> % mp2 density relaxed end
|  4> *xyz 0 1
|  5>  N       -0.1090514793     1.2896898869    -0.5257201795
|  6>  C       -0.0183924504     0.1071067076    -0.0778162925
|  7>  C       -1.2579885189    -0.7440431373     0.0912083187
|  8>  C       -1.5660981495    -1.2796159800     1.5047362262
|  9>  C       -0.3849582701    -1.9581494755     2.2085580600
| 10>  C        0.7677918688    -0.9642012762     2.5375409637
| 11>  C        1.4472891882    -1.3752702801     1.2085743449
| 12>  C        0.5955886929    -2.6736930841     1.2309983978
| 13>  O        1.2125506109    -0.4623118951     0.1332307178
| 14>  H        0.8264590110     1.6957319131    -0.6061601178
| 15>  H       -2.0922673706    -0.1343278457    -0.2584548208
| 16>  H       -1.1666980486    -1.5902106217    -0.6003353635
| 17>  H       -1.9294671493    -0.4588327836     2.1351711503
| 18>  H       -2.3956813421    -1.9898724835     1.4110413856
| 19>  H       -0.7471529142    -2.5550639836     3.0494288391
| 20>  H        0.5163817324     0.0942811043     2.6518083320
| 21>  H        1.3574247538    -1.2833627106     3.4007717920
| 22>  H        2.5310002980    -1.4992403210     1.2076693989
| 23>  H        1.1514204608    -3.4729334039     1.7289832021
| 24>  H        0.2181754662    -3.0546692498     0.2801330950
| 25> *
| 26>
| 27>                          ****END OF INPUT****

CARTESIAN COORDINATES (ANGSTROEM)
---------------------------------
  N     -0.109051    1.289690   -0.525720
  C     -0.018392    0.107107   -0.077816
  C     -1.257989   -0.744043    0.091208
  C     -1.566098   -1.279616    1.504736
  C     -0.384958   -1.958149    2.208558
  C      0.767792   -0.964201    2.537541
  C      1.447289   -1.375270    1.208574
  C      0.595589   -2.673693    1.230998
  O      1.212551   -0.462312    0.133231
  H      0.826459    1.695732   -0.606160
  H     -2.092267   -0.134328   -0.258455
  H     -1.166698   -1.590211   -0.600335
  H     -1.929467   -0.458833    2.135171
  H     -2.395681   -1.989872    1.411041
  H     -0.747153   -2.555064    3.049429
  H      0.516382    0.094281    2.651808
  H      1.357425   -1.283363    3.400772
  H      2.531000   -1.499240    1.207669
  H      1.151420   -3.472933    1.728983
  H      0.218175   -3.054669    0.280133

 Total Charge           Charge          ....    0
 Multiplicity           Mult            ....    1
 Number of Electrons    NEL             ....   68
 Basis Dimension        Dim             ....  345

ORBITAL ENERGIES
----------------

  NO   OCC          E(Eh)            E(eV)
   0   2.0000     -20.580820      -560.0326
   1   2.0000     -15.526926      -422.5091
   2   2.0000     -11.329368      -308.2878
   3   2.0000     -11.296979      -307.4064
   4   2.0000     -11.240978      -305.8826
   5   2.0000     -11.235710      -305.7392
   6   2.0000     -11.235047      -305.7212
   7   2.0000     -11.232711      -305.6576
   8   2.0000     -11.230963      -305.6100
   9   2.0000      -1.412510       -38.4364
  10   2.0000      -1.192101       -32.4387
  11   2.0000      -1.144944       -31.1555
  12   2.0000      -1.045533       -28.4504
  13   2.0000      -0.931416       -25.3451
  14   2.0000      -0.916463       -24.9382
  15   2.0000      -0.882014       -24.0008
  16   2.0000      -0.756691       -20.5906
  17   2.0000      -0.729483       -19.8503
  18   2.0000      -0.703624       -19.1466
  19   2.0000      -0.679266       -18.4838
  20   2.0000      -0.638975       -17.3874
  21   2.0000      -0.624290       -16.9878
  22   2.0000      -0.618847       -16.8397
  23   2.0000      -0.594756       -16.1841
  24   2.0000      -0.561227       -15.2718
  25   2.0000      -0.540264       -14.7013
  26   2.0000      -0.518204       -14.1010
  27   2.0000      -0.512895       -13.9566
  28   2.0000      -0.468244       -12.7416
  29   2.0000      -0.460879       -12.5412
  30   2.0000      -0.444845       -12.1049
  31   2.0000      -0.438586       -11.9345
  32   2.0000      -0.428468       -11.6592
  33   2.0000      -0.388670       -10.5762
  34   0.0000       0.125588         3.4174
  35   0.0000       0.149027         4.0552
  36   0.0000       0.156819         4.2673
  37   0.0000       0.168151         4.5756
  38   0.0000       0.184407         5.0180

MULLIKEN ATOMIC CHARGES
-----------------------
   0 N :   -0.353811
   1 C :    0.068651
   2 C :   -0.172626
   3 C :   -0.268021
   4 C :    0.015474
   5 C :   -0.317150
   6 C :    0.130960
   7 C :   -0.321572
   8 O :   -0.276463
   9 H :    0.216881
  10 H :    0.148019
  11 H :    0.128994
  12 H :    0.124737
  13 H :    0.123762
  14 H :    0.110697
  15 H :    0.135294
  16 H :    0.128998
  17 H :    0.121405
  18 H :    0.126104
  19 H :    0.129669
Sum of atomic charges:    0.0000000

LOEWDIN ATOMIC CHARGES
----------------------
   0 N :   -0.052102
   1 C :   -0.407283
   2 C :   -0.223396
   3 C :   -0.239865
   4 C :   -0.229453
   5 C :   -0.200811
   6 C :   -0.269667
   7 C :   -0.202224
   8 O :    0.243259
   9 H :    0.164831
  10 H :    0.157012
  11 H :    0.149746
  12 H :    0.144251
  13 H :    0.143050
  14 H :    0.139040
  15 H :    0.136027
  16 H :    0.140584
  17 H :    0.134971
  18 H :    0.141753
  19 H :    0.130279

  Mayer bond orders larger than 0.1
B(  0-N ,  1-C ) :   2.0674 B(  0-N ,  9-H ) :   0.8582 B(  1-C ,  2-C ) :   0.9018
B(  1-C ,  8-O ) :   1.0802 B(  2-C ,  3-C ) :   0.9234 B(  2-C , 10-H ) :   0.9137
B(  2-C , 11-H ) :   0.9263 B(  3-C ,  4-C ) :   0.9081 B(  3-C , 12-H ) :   0.9295
B(  3-C , 13-H ) :   0.9280 B(  4-C ,  5-C ) :   0.8972 B(  4-C ,  7-C ) :   0.8971
B(  4-C , 14-H ) :   0.9269 B(  5-C ,  6-C ) :   0.8973 B(  5-C , 15-H ) :   0.9210
B(  5-C , 16-H ) :   0.9166 B(  6-C ,  7-C ) :   0.8882 B(  6-C ,  8-O ) :   0.8737
B(  6-C , 17-H ) :   0.9446 B(  7-C , 18-H ) :   0.9155 B(  7-C , 19-H ) :   0.9274

MP2 TOTAL ENERGY:     -402.461004478 Eh
FINAL SINGLE POINT ENERGY      -402.461004478052

DIPOLE MOMENT
-------------
                                X             Y             Z
Electronic contribution:      2.70122       3.24440      -3.31215
Nuclear contribution   :     -2.52487      -4.24348       4.10596
                        -----------------------------------------
Total Dipole Moment    :      0.17635      -0.99908       0.79381
                        -----------------------------------------
Magnitude (a.u.)       :      1.28818
Magnitude (Debye)      :      3.27429

                             ****ORCA TERMINATED NORMALLY****
TOTAL RUN TIME: 0 days 0 hours 20 minutes 32 seconds 856 msec
