                         Program Version 3.0.3 - RELEASE   -
|  1> ! RI-MP2 RIJK def2-TZVP def2-TZVP/C def2-TZVP/JK TIGHTSCF
|  2> % maxcore 2000
|  3> % mp2 density relaxed end
|  4> *xyz 0 1
|  5>  O        0.0043331951     0.0663005745    -0.0451988194
|  6>  C       -0.0159489567     1.2630175138    -0.0092289636
|  7>  C       -1.2261915301     2.2144582718     0.0348167521
|  8>  C       -1.2428965919     2.7612163645     1.4913815382
|  9>  C        0.0902000433     3.4642732130     1.8071867278
| 10>  O        1.2327842888     2.7262594226     1.3741804594
| 11>  C        1.1563906558     2.2626800444     0.0078685393
| 12>  C        0.6174670976     3.2902849256    -0.9629765296
| 13>  C       -0.7227843117     3.2547906380    -0.9507664578
| 14>  H       -2.1691965097     1.7328373050    -0.2299956601
| 15>  H       -2.0697302284     3.4660390721     1.6390129421
| 16>  H       -1.4011076524     1.9197323796     2.1750402080
| 17>  H        0.0934185502     4.4637860345     1.3536462352
| 18>  H        0.2185230718     3.5886225019     2.8856242626
| 19>  H        2.1317696520     1.8343123314    -0.2210189319
| 20>  H        1.2369864471     3.9492732606    -1.5576158346
| 21>  H       -1.3812053607     3.8768522468    -1.5458072077
| 22> *
| 23>
| 24>                          ****END OF INPUT****

CARTESIAN COORDINATES (ANGSTROEM)
---------------------------------
  O      0.004333    0.066301   -0.045199
  C     -0.015949    1.263018   -0.009229
  C     -1.226192    2.214458    0.034817
  C     -1.242897    2.761216    1.491382
  C      0.090200    3.464273    1.807187
  O      1.232784    2.726259    1.374180
  C      1.156391    2.262680    0.007869
  C      0.617467    3.290285   -0.962977
  C     -0.722784    3.254791   -0.950766
  H     -2.169197    1.732837   -0.229996
  H     -2.069730    3.466039    1.639013
  H     -1.401108    1.919732    2.175040
  H      0.093419    4.463786    1.353646
  H      0.218523    3.588623    2.885624
  H      2.131770    1.834312   -0.221019
  H      1.236986    3.949273   -1.557616
  H     -1.381205    3.876852   -1.545807

 Total Charge           Charge          ....    0
 Multiplicity           Mult            ....    1
 Number of Electrons    NEL             ....   66
 Basis Dimension        Dim             ....  327

ORBITAL ENERGIES
----------------

  NO   OCC          E(Eh)            E(eV)
   0   2.0000     -20.568809      -559.7058
   1   2.0000     -20.554085      -559.3051
   2   2.0000     -11.332085      -308.3617
   3   2.0000     -11.299639      -307.4788
   4   2.0000     -11.284706      -307.0725
   5   2.0000     -11.259840      -306.3958
   6   2.0000     -11.257280      -306.3262
   7   2.0000     -11.248873      -306.0974
   8   2.0000     -11.247017      -306.0469
   9   2.0000      -1.403283       -38.1853
  10   2.0000      -1.378131       -37.5008
  11   2.0000      -1.157369       -31.4936
  12   2.0000      -1.061550       -28.8862
  13   2.0000      -0.963307       -26.2129
  14   2.0000      -0.927721       -25.2446
  15   2.0000      -0.846091       -23.0233
  16   2.0000      -0.766153       -20.8481
  17   2.0000      -0.745687       -20.2912
  18   2.0000      -0.710213       -19.3259
  19   2.0000      -0.667857       -18.1733
  20   2.0000      -0.643992       -17.5239
  21   2.0000      -0.633052       -17.2262
  22   2.0000      -0.604641       -16.4531
  23   2.0000      -0.584869       -15.9151
  24   2.0000      -0.576131       -15.6773
  25   2.0000      -0.571762       -15.5584
  26   2.0000      -0.541490       -14.7347
  27   2.0000      -0.529219       -14.4008
  28   2.0000      -0.491756       -13.3814
  29   2.0000      -0.473959       -12.8971
  30   2.0000      -0.454997       -12.3811
  31   2.0000      -0.381419       -10.3789
  32   2.0000      -0.379642       -10.3306
  33   0.0000       0.112536         3.0622
  34   0.0000       0.135817         3.6958
  35   0.0000       0.150401         4.0926
  36   0.0000       0.167847         4.5673
  37   0.0000       0.169085         4.6010

MULLIKEN ATOMIC CHARGES
-----------------------
   0 O :   -0.242191
   1 C :    0.052772
   2 C :    0.082815
   3 C :   -0.281843
   4 C :   -0.068800
   5 O :   -0.313786
   6 C :    0.176726
   7 C :   -0.245198
   8 C :   -0.213817
   9 H :    0.132488
  10 H :    0.127738
  11 H :    0.132718
  12 H :    0.110605
  13 H :    0.136064
  14 H :    0.130076
  15 H :    0.141669
  16 H :    0.141963
Sum of atomic charges:    0.0000000

LOEWDIN ATOMIC CHARGES
----------------------
   0 O :    0.173537
   1 C :   -0.263045
   2 C :   -0.192464
   3 C :   -0.229436
   4 C :   -0.305701
   5 O :    0.171111
   6 C :   -0.248764
   7 C :   -0.127117
   8 C :   -0.106746
   9 H :    0.154250
  10 H :    0.142660
  11 H :    0.146450
  12 H :    0.124213
  13 H :    0.133192
  14 H :    0.147689
  15 H :    0.139725
  16 H :    0.140447

  Mayer bond orders larger than 0.1
B(  0-O ,  1-C ) :   2.0843 B(  1-C ,  2-C ) :   0.8712 B(  1-C ,  6-C ) :   0.8708
B(  2-C ,  3-C ) :   0.8531 B(  2-C ,  6-C ) :  -0.1091 B(  2-C ,  8-C ) :   0.8907
B(  2-C ,  9-H ) :   0.9041 B(  3-C ,  4-C ) :   0.9491 B(  3-C , 10-H ) :   0.9152
B(  3-C , 11-H ) :   0.9204 B(  4-C ,  5-O ) :   0.9335 B(  4-C , 12-H ) :   0.9359
B(  4-C , 13-H ) :   0.9247 B(  5-O ,  6-C ) :   0.8778 B(  6-C ,  7-C ) :   0.8875
B(  6-C , 14-H ) :   0.9124 B(  7-C ,  8-C ) :   1.7194 B(  7-C , 15-H ) :   0.9259
B(  8-C , 16-H ) :   0.9220

MP2 TOTAL ENERGY:     -421.130271188 Eh
FINAL SINGLE POINT ENERGY      -421.130271187850

DIPOLE MOMENT
-------------
                                X             Y             Z
Electronic contribution:      2.53129      -4.38599      -1.83177
Nuclear contribution   :     -3.13305       5.61131       1.64057
                        -----------------------------------------
Total Dipole Moment    :     -0.60176       1.22532      -0.19120
                        -----------------------------------------
Magnitude (a.u.)       :      1.37843
Magnitude (Debye)      :      3.50369

                             ****ORCA TERMINATED NORMALLY****
TOTAL RUN TIME: 0 days 0 hours 19 minutes 46 seconds 731 msec
