                         Program Version 3.0.3 - RELEASE   -
|  1> ! RI-MP2 RIJK def2-TZVP def2-TZVP/C def2-TZVP/JK TIGHTSCF
|  2> % maxcore 2000
|  3> % mp2 density relaxed end
|  4> *xyz 0 1
|  5>  C        0.0712288639     1.5193097198    -0.3208920497
|  6>  C        0.0432840276     0.0763310091    -0.1321303315
|  7>  C        0.0152425575    -1.1183975212     0.0162291531
|  8>  C       -0.0235942047    -2.5521956120     0.2200729479
|  9>  C        0.0445972409    -3.1152639002     1.6925294503
| 10>  C       -1.1631149414    -4.0536422334     1.3899524742
| 11>  C       -1.3538067896    -3.2966172251     0.0932990296
| 12>  N       -2.2662809329    -3.1718193986    -0.7720949993
| 13>  O       -3.3518128261    -4.0209786059    -0.4849094726
| 14>  H        0.8480641084     1.8139999939    -1.0351611032
| 15>  H       -0.8873696610     1.8868397814    -0.7036590160
| 16>  H        0.2728262390     2.0410531733     0.6213768877
| 17>  H        0.7342462601    -3.0439867832    -0.4041082044
| 18>  H        0.9847889397    -3.5947468101     1.9673328394
| 19>  H       -0.1953726160    -2.3436177754     2.4247577638
| 20>  H       -0.8889082551    -5.1024851891     1.2369860975
| 21>  H       -2.0087375957    -4.0204270410     2.0807341842
| 22>  H       -3.9673763243    -3.8062271521    -1.1939530208
| 23> *
| 24>
| 25>                          ****END OF INPUT****

CARTESIAN COORDINATES (ANGSTROEM)
---------------------------------
  C      0.071229    1.519310   -0.320892
  C      0.043284    0.076331   -0.132130
  C      0.015243   -1.118398    0.016229
  C     -0.023594   -2.552196    0.220073
  C      0.044597   -3.115264    1.692529
  C     -1.163115   -4.053642    1.389952
  C     -1.353807   -3.296617    0.093299
  N     -2.266281   -3.171819   -0.772095
  O     -3.351813   -4.020979   -0.484909
  H      0.848064    1.814000   -1.035161
  H     -0.887370    1.886840   -0.703659
  H      0.272826    2.041053    0.621377
  H      0.734246   -3.043987   -0.404108
  H      0.984789   -3.594747    1.967333
  H     -0.195373   -2.343618    2.424758
  H     -0.888908   -5.102485    1.236986
  H     -2.008738   -4.020427    2.080734
  H     -3.967376   -3.806227   -1.193953

 Total Charge           Charge          ....    0
 Multiplicity           Mult            ....    1
 Number of Electrons    NEL             ....   66
 Basis Dimension        Dim             ....  333

ORBITAL ENERGIES
----------------

  NO   OCC          E(Eh)            E(eV)
   0   2.0000     -20.589111      -560.2582
   1   2.0000     -15.612201      -424.8296
   2   2.0000     -11.278213      -306.8958
   3   2.0000     -11.265816      -306.5584
   4   2.0000     -11.244904      -305.9894
   5   2.0000     -11.241854      -305.9064
   6   2.0000     -11.240981      -305.8827
   7   2.0000     -11.223531      -305.4078
   8   2.0000     -11.216995      -305.2299
   9   2.0000      -1.414173       -38.4816
  10   2.0000      -1.186827       -32.2952
  11   2.0000      -1.096069       -29.8255
  12   2.0000      -1.053023       -28.6542
  13   2.0000      -0.980313       -26.6757
  14   2.0000      -0.911442       -24.8016
  15   2.0000      -0.854936       -23.2640
  16   2.0000      -0.747552       -20.3419
  17   2.0000      -0.693483       -18.8706
  18   2.0000      -0.687186       -18.6993
  19   2.0000      -0.671219       -18.2648
  20   2.0000      -0.627965       -17.0878
  21   2.0000      -0.588489       -16.0136
  22   2.0000      -0.585297       -15.9268
  23   2.0000      -0.583183       -15.8692
  24   2.0000      -0.575994       -15.6736
  25   2.0000      -0.549520       -14.9532
  26   2.0000      -0.515682       -14.0324
  27   2.0000      -0.511027       -13.9058
  28   2.0000      -0.492740       -13.4081
  29   2.0000      -0.429848       -11.6968
  30   2.0000      -0.386833       -10.5263
  31   2.0000      -0.364630        -9.9221
  32   2.0000      -0.361660        -9.8413
  33   0.0000       0.127597         3.4721
  34   0.0000       0.142247         3.8707
  35   0.0000       0.148309         4.0357
  36   0.0000       0.157444         4.2843
  37   0.0000       0.176037         4.7902

MULLIKEN ATOMIC CHARGES
-----------------------
   0 C :   -0.487766
   1 C :    0.049890
   2 C :   -0.056051
   3 C :   -0.076074
   4 C :   -0.247124
   5 C :   -0.178088
   6 C :   -0.059830
   7 N :   -0.070850
   8 O :   -0.363355
   9 H :    0.161871
  10 H :    0.164883
  11 H :    0.160420
  12 H :    0.133610
  13 H :    0.125738
  14 H :    0.133248
  15 H :    0.133364
  16 H :    0.138224
  17 H :    0.337890
Sum of atomic charges:   -0.0000000

LOEWDIN ATOMIC CHARGES
----------------------
   0 C :   -0.295123
   1 C :   -0.095052
   2 C :   -0.064205
   3 C :   -0.180502
   4 C :   -0.183462
   5 C :   -0.206590
   6 C :   -0.254188
   7 N :    0.032290
   8 O :   -0.074540
   9 H :    0.140538
  10 H :    0.141774
  11 H :    0.140179
  12 H :    0.175103
  13 H :    0.127079
  14 H :    0.138829
  15 H :    0.146213
  16 H :    0.142009
  17 H :    0.169651

  Mayer bond orders larger than 0.1
B(  0-C ,  1-C ) :   0.8458 B(  0-C ,  9-H ) :   0.9499 B(  0-C , 10-H ) :   0.9467
B(  0-C , 11-H ) :   0.9486 B(  1-C ,  2-C ) :   2.6369 B(  1-C ,  3-C ) :  -0.1098
B(  2-C ,  3-C ) :   1.1212 B(  3-C ,  4-C ) :   0.9099 B(  3-C ,  6-C ) :   0.8938
B(  3-C , 12-H ) :   0.8879 B(  4-C ,  5-C ) :   0.9466 B(  4-C , 13-H ) :   0.9319
B(  4-C , 14-H ) :   0.9268 B(  5-C ,  6-C ) :   0.9410 B(  5-C , 15-H ) :   0.8993
B(  5-C , 16-H ) :   0.9070 B(  6-C ,  7-N ) :   1.9170 B(  7-N ,  8-O ) :   0.8012
B(  8-O , 17-H ) :   0.8439

MP2 TOTAL ENERGY:     -401.160615374 Eh
FINAL SINGLE POINT ENERGY      -401.160615373815

DIPOLE MOMENT
-------------
                                X             Y             Z
Electronic contribution:     -3.14910      -3.58210      -2.92463
Nuclear contribution   :      3.31997       3.69950       3.16197
                        -----------------------------------------
Total Dipole Moment    :      0.17087       0.11739       0.23734
                        -----------------------------------------
Magnitude (a.u.)       :      0.31513
Magnitude (Debye)      :      0.80100

                             ****ORCA TERMINATED NORMALLY****
TOTAL RUN TIME: 0 days 0 hours 14 minutes 51 seconds 548 msec
