                         Program Version 3.0.3 - RELEASE   -
|  1> ! RI-MP2 RIJK def2-TZVP def2-TZVP/C def2-TZVP/JK TIGHTSCF
|  2> % maxcore 2000
|  3> % mp2 density relaxed end
|  4> *xyz 0 1
|  5>  C       -0.1332239536     1.5191322342     0.0423559421
|  6>  C        0.1194036456     0.0506384064     0.0100673616
|  7>  O       -0.7902884081    -0.8398962362     0.6856663010
|  8>  C        0.6021188528    -0.9180157491     0.9889892421
|  9>  C        1.3204257637    -1.7590006365    -0.1273828585
| 10>  C        0.3461031202    -2.1687681962    -1.2160427747
| 11>  C        0.7929195061    -0.7434634762    -1.1619840325
| 12>  C        2.6361556664    -2.2750317103     0.0026180608
| 13>  N        3.7113725884    -2.6857331245     0.1359781303
| 14>  H        0.7735624662     2.0703416380    -0.2262557420
| 15>  H       -0.9191352585     1.7931125369    -0.6701168259
| 16>  H       -0.4496742841     1.8270841312     1.0418377795
| 17>  H        0.9178059894    -0.8355066139     2.0218635324
| 18>  H        0.7874737701    -2.7627910032    -2.0086335662
| 19>  H       -0.6622439450    -2.4352076547    -0.9278192928
| 20>  H        1.3786521804    -0.2745403361    -1.9410567471
| 21> *
| 22>
| 23>                          ****END OF INPUT****

CARTESIAN COORDINATES (ANGSTROEM)
---------------------------------
  C     -0.133224    1.519132    0.042356
  C      0.119404    0.050638    0.010067
  O     -0.790288   -0.839896    0.685666
  C      0.602119   -0.918016    0.988989
  C      1.320426   -1.759001   -0.127383
  C      0.346103   -2.168768   -1.216043
  C      0.792920   -0.743463   -1.161984
  C      2.636156   -2.275032    0.002618
  N      3.711373   -2.685733    0.135978
  H      0.773562    2.070342   -0.226256
  H     -0.919135    1.793113   -0.670117
  H     -0.449674    1.827084    1.041838
  H      0.917806   -0.835507    2.021864
  H      0.787474   -2.762791   -2.008634
  H     -0.662244   -2.435208   -0.927819
  H      1.378652   -0.274540   -1.941057

 Total Charge           Charge          ....    0
 Multiplicity           Mult            ....    1
 Number of Electrons    NEL             ....   64
 Basis Dimension        Dim             ....  321

ORBITAL ENERGIES
----------------

  NO   OCC          E(Eh)            E(eV)
   0   2.0000     -20.590966      -560.3087
   1   2.0000     -15.570477      -423.6942
   2   2.0000     -11.321267      -308.0673
   3   2.0000     -11.317704      -307.9704
   4   2.0000     -11.293831      -307.3208
   5   2.0000     -11.278115      -306.8931
   6   2.0000     -11.277716      -306.8822
   7   2.0000     -11.268856      -306.6411
   8   2.0000     -11.248247      -306.0804
   9   2.0000      -1.446657       -39.3655
  10   2.0000      -1.225854       -33.3572
  11   2.0000      -1.189132       -32.3579
  12   2.0000      -1.037663       -28.2363
  13   2.0000      -0.966056       -26.2877
  14   2.0000      -0.920185       -25.0395
  15   2.0000      -0.848176       -23.0801
  16   2.0000      -0.776120       -21.1193
  17   2.0000      -0.753961       -20.5163
  18   2.0000      -0.693268       -18.8648
  19   2.0000      -0.651330       -17.7236
  20   2.0000      -0.609312       -16.5802
  21   2.0000      -0.595274       -16.1982
  22   2.0000      -0.584124       -15.8948
  23   2.0000      -0.567473       -15.4417
  24   2.0000      -0.551135       -14.9971
  25   2.0000      -0.537899       -14.6370
  26   2.0000      -0.520863       -14.1734
  27   2.0000      -0.504490       -13.7279
  28   2.0000      -0.495011       -13.4699
  29   2.0000      -0.440820       -11.9953
  30   2.0000      -0.432127       -11.7588
  31   2.0000      -0.369865       -10.0645
  32   0.0000       0.126504         3.4423
  33   0.0000       0.140548         3.8245
  34   0.0000       0.147817         4.0223
  35   0.0000       0.154262         4.1977
  36   0.0000       0.174424         4.7463

MULLIKEN ATOMIC CHARGES
-----------------------
   0 C :   -0.415508
   1 C :    0.163129
   2 O :   -0.315541
   3 C :   -0.061644
   4 C :    0.233465
   5 C :   -0.258876
   6 C :   -0.130820
   7 C :   -0.263447
   8 N :   -0.052994
   9 H :    0.144912
  10 H :    0.147524
  11 H :    0.153172
  12 H :    0.162029
  13 H :    0.157283
  14 H :    0.172851
  15 H :    0.164466
Sum of atomic charges:    0.0000000

LOEWDIN ATOMIC CHARGES
----------------------
   0 C :   -0.263498
   1 C :   -0.269651
   2 O :    0.206054
   3 C :   -0.164743
   4 C :   -0.169714
   5 C :   -0.145876
   6 C :   -0.095179
   7 C :   -0.167948
   8 N :    0.064746
   9 H :    0.137851
  10 H :    0.136798
  11 H :    0.139563
  12 H :    0.142126
  13 H :    0.152411
  14 H :    0.147649
  15 H :    0.149408

  Mayer bond orders larger than 0.1
B(  0-C ,  1-C ) :   0.8719 B(  0-C ,  9-H ) :   0.9341 B(  0-C , 10-H ) :   0.9366
B(  0-C , 11-H ) :   0.9379 B(  1-C ,  2-O ) :   0.8924 B(  1-C ,  3-C ) :   0.9923
B(  1-C ,  6-C ) :   0.8694 B(  2-O ,  3-C ) :   0.9321 B(  3-C ,  4-C ) :   0.8082
B(  3-C , 12-H ) :   0.9181 B(  4-C ,  5-C ) :   0.8529 B(  4-C ,  6-C ) :   0.7863
B(  4-C ,  7-C ) :   0.9352 B(  5-C ,  6-C ) :   0.9297 B(  5-C , 13-H ) :   0.9244
B(  5-C , 14-H ) :   0.8906 B(  6-C , 15-H ) :   0.9051 B(  7-C ,  8-N ) :   2.8726

MP2 TOTAL ENERGY:     -399.995369584 Eh
FINAL SINGLE POINT ENERGY      -399.995369584287

DIPOLE MOMENT
-------------
                                X             Y             Z
Electronic contribution:      3.29094      -5.21956       1.72569
Nuclear contribution   :     -4.22971       6.31506      -2.12879
                        -----------------------------------------
Total Dipole Moment    :     -0.93877       1.09551      -0.40310
                        -----------------------------------------
Magnitude (a.u.)       :      1.49797
Magnitude (Debye)      :      3.80754

                             ****ORCA TERMINATED NORMALLY****
TOTAL RUN TIME: 0 days 0 hours 16 minutes 25 seconds 107 msec
