                         Program Version 3.0.3 - RELEASE   -
|  1> ! RI-MP2 RIJK def2-TZVP def2-TZVP/C def2-TZVP/JK TIGHTSCF
|  2> % maxcore 2000
|  3> % mp2 density relaxed end
|  4> *xyz 0 1
|  5>  C        0.2469354976     1.5721250611    -0.0523279299
|  6>  C       -0.0325868816     0.0632227293     0.0336107973
|  7>  N        0.2499101552    -0.4987815847    -1.2842674253
|  8>  C        0.5436722483    -1.6799920311    -1.6013562794
|  9>  O        0.7012521789    -2.8366696018    -0.9056232105
| 10>  C        0.1995080506    -2.9679466212     0.4298945169
| 11>  C        0.7916952713    -2.0177755953     1.4433942392
| 12>  C        2.0351028762    -1.2158291385     1.1419293573
| 13>  C        0.6904519416    -0.5326839055     1.2370452924
| 14>  H        1.3144788763     1.7507195162    -0.2156410280
| 15>  H       -0.3024812873     2.0080711214    -0.8898279562
| 16>  H       -0.0514506946     2.0805711131     0.8702773138
| 17>  H       -1.1139128511    -0.0559873527     0.2059732517
| 18>  H        0.7561803331    -1.9025761712    -2.6484718125
| 19>  H       -0.8952620103    -2.8754134520     0.4055402184
| 20>  H        0.4382065224    -4.0011906559     0.6974422475
| 21>  H        0.6716019554    -2.3773330404     2.4622967989
| 22>  H        2.7486609911    -1.0576881925     1.9426281436
| 23>  H        2.4833406696    -1.3324801060     0.1624533057
| 24>  H        0.5286351571     0.0535821175     2.1385060891
| 25> *
| 26>
| 27>                          ****END OF INPUT****

CARTESIAN COORDINATES (ANGSTROEM)
---------------------------------
  C      0.246935    1.572125   -0.052328
  C     -0.032587    0.063223    0.033611
  N      0.249910   -0.498782   -1.284267
  C      0.543672   -1.679992   -1.601356
  O      0.701252   -2.836670   -0.905623
  C      0.199508   -2.967947    0.429895
  C      0.791695   -2.017776    1.443394
  C      2.035103   -1.215829    1.141929
  C      0.690452   -0.532684    1.237045
  H      1.314479    1.750720   -0.215641
  H     -0.302481    2.008071   -0.889828
  H     -0.051451    2.080571    0.870277
  H     -1.113913   -0.055987    0.205973
  H      0.756180   -1.902576   -2.648472
  H     -0.895262   -2.875413    0.405540
  H      0.438207   -4.001191    0.697442
  H      0.671602   -2.377333    2.462297
  H      2.748661   -1.057688    1.942628
  H      2.483341   -1.332480    0.162453
  H      0.528635    0.053582    2.138506

 Total Charge           Charge          ....    0
 Multiplicity           Mult            ....    1
 Number of Electrons    NEL             ....   68
 Basis Dimension        Dim             ....  345

ORBITAL ENERGIES
----------------

  NO   OCC          E(Eh)            E(eV)
   0   2.0000     -20.589588      -560.2712
   1   2.0000     -15.538745      -422.8308
   2   2.0000     -11.329366      -308.2877
   3   2.0000     -11.293776      -307.3193
   4   2.0000     -11.263734      -306.5018
   5   2.0000     -11.237278      -305.7819
   6   2.0000     -11.232842      -305.6612
   7   2.0000     -11.228337      -305.5386
   8   2.0000     -11.206240      -304.9373
   9   2.0000      -1.417544       -38.5733
  10   2.0000      -1.215011       -33.0621
  11   2.0000      -1.154335       -31.4110
  12   2.0000      -1.021974       -27.8093
  13   2.0000      -0.984595       -26.7922
  14   2.0000      -0.876309       -23.8456
  15   2.0000      -0.839970       -22.8567
  16   2.0000      -0.783116       -21.3097
  17   2.0000      -0.748205       -20.3597
  18   2.0000      -0.707961       -19.2646
  19   2.0000      -0.678617       -18.4661
  20   2.0000      -0.659300       -17.9405
  21   2.0000      -0.645789       -17.5728
  22   2.0000      -0.582017       -15.8375
  23   2.0000      -0.577792       -15.7225
  24   2.0000      -0.557175       -15.1615
  25   2.0000      -0.531208       -14.4549
  26   2.0000      -0.528086       -14.3699
  27   2.0000      -0.523463       -14.2442
  28   2.0000      -0.497337       -13.5332
  29   2.0000      -0.492838       -13.4108
  30   2.0000      -0.424644       -11.5551
  31   2.0000      -0.407670       -11.0933
  32   2.0000      -0.391566       -10.6551
  33   2.0000      -0.378972       -10.3124
  34   0.0000       0.130283         3.5452
  35   0.0000       0.157315         4.2808
  36   0.0000       0.159363         4.3365
  37   0.0000       0.173040         4.7087
  38   0.0000       0.190201         5.1756

MULLIKEN ATOMIC CHARGES
-----------------------
   0 C :   -0.371966
   1 C :    0.049619
   2 N :   -0.262409
   3 C :    0.064749
   4 O :   -0.263898
   5 C :   -0.062494
   6 C :   -0.104665
   7 C :   -0.296926
   8 C :   -0.134687
   9 H :    0.125457
  10 H :    0.136896
  11 H :    0.113990
  12 H :    0.096059
  13 H :    0.133051
  14 H :    0.118406
  15 H :    0.135808
  16 H :    0.121502
  17 H :    0.134803
  18 H :    0.150565
  19 H :    0.116139
Sum of atomic charges:   -0.0000000

LOEWDIN ATOMIC CHARGES
----------------------
   0 C :   -0.287991
   1 C :   -0.297641
   2 N :    0.110909
   3 C :   -0.377469
   4 O :    0.220848
   5 C :   -0.268120
   6 C :   -0.220305
   7 C :   -0.195221
   8 C :   -0.194609
   9 H :    0.125005
  10 H :    0.124529
  11 H :    0.119254
  12 H :    0.154400
  13 H :    0.134620
  14 H :    0.132238
  15 H :    0.137732
  16 H :    0.152593
  17 H :    0.132945
  18 H :    0.142461
  19 H :    0.153820

  Mayer bond orders larger than 0.1
B(  0-C ,  1-C ) :   0.9136 B(  0-C ,  9-H ) :   0.9378 B(  0-C , 10-H ) :   0.9385
B(  0-C , 11-H ) :   0.9360 B(  1-C ,  2-N ) :   0.9130 B(  1-C ,  8-C ) :   0.9106
B(  1-C , 12-H ) :   0.9282 B(  2-N ,  3-C ) :   1.8734 B(  3-C ,  4-O ) :   1.0550
B(  3-C , 13-H ) :   0.9270 B(  4-O ,  5-C ) :   0.8665 B(  5-C ,  6-C ) :   0.9388
B(  5-C , 14-H ) :   0.9420 B(  5-C , 15-H ) :   0.9313 B(  6-C ,  7-C ) :   0.8953
B(  6-C ,  8-C ) :   0.8592 B(  6-C , 16-H ) :   0.9167 B(  7-C ,  8-C ) :   0.8835
B(  7-C , 17-H ) :   0.9296 B(  7-C , 18-H ) :   0.9180 B(  8-C , 19-H ) :   0.9213

MP2 TOTAL ENERGY:     -402.444355824 Eh
FINAL SINGLE POINT ENERGY      -402.444355823569

DIPOLE MOMENT
-------------
                                X             Y             Z
Electronic contribution:     -0.13639      -4.69593      -3.59953
Nuclear contribution   :     -0.02061       4.41657       4.43747
                        -----------------------------------------
Total Dipole Moment    :     -0.15700      -0.27937       0.83793
                        -----------------------------------------
Magnitude (a.u.)       :      0.89712
Magnitude (Debye)      :      2.28030

                             ****ORCA TERMINATED NORMALLY****
TOTAL RUN TIME: 0 days 0 hours 19 minutes 51 seconds 858 msec
