                         Program Version 3.0.3 - RELEASE   -
|  1> ! RI-MP2 RIJK def2-TZVP def2-TZVP/C def2-TZVP/JK TIGHTSCF
|  2> % maxcore 2000
|  3> % mp2 density relaxed end
|  4> *xyz 0 1
|  5>  C       -0.0195353601     1.4173501385    -0.0297963619
|  6>  N       -0.0152157949    -0.0402518404     0.0144922624
|  7>  N       -0.0657066193    -0.6577106071    -1.1605179086
|  8>  N       -0.0674320836    -1.9319517919    -1.2213357531
|  9>  C       -0.0150681623    -2.6735526110    -0.0506640827
| 10>  N       -0.0682842638    -4.0159767065    -0.2798464129
| 11>  C        0.0493361872    -2.0939260915     1.1898175112
| 12>  C        0.0506450285    -0.6721030480     1.2963304197
| 13>  O        0.1002625804     0.0223536981     2.2966796035
| 14>  H        0.8850778654     1.8042691933     0.4443522310
| 15>  H       -0.0666107995     1.7129240115    -1.0765538005
| 16>  H       -0.8802362954     1.8012438638     0.5222294673
| 17>  H        0.0962871607    -4.3086483692    -1.2296344311
| 18>  H        0.2124165160    -4.6495709158     0.4486880497
| 19>  H        0.0943909505    -2.6730194736     2.1038296358
| 20> *
| 21>
| 22>                          ****END OF INPUT****

CARTESIAN COORDINATES (ANGSTROEM)
---------------------------------
  C     -0.019535    1.417350   -0.029796
  N     -0.015216   -0.040252    0.014492
  N     -0.065707   -0.657711   -1.160518
  N     -0.067432   -1.931952   -1.221336
  C     -0.015068   -2.673553   -0.050664
  N     -0.068284   -4.015977   -0.279846
  C      0.049336   -2.093926    1.189818
  C      0.050645   -0.672103    1.296330
  O      0.100263    0.022354    2.296680
  H      0.885078    1.804269    0.444352
  H     -0.066611    1.712924   -1.076554
  H     -0.880236    1.801244    0.522229
  H      0.096287   -4.308648   -1.229634
  H      0.212417   -4.649571    0.448688
  H      0.094391   -2.673019    2.103830

 Total Charge           Charge          ....    0
 Multiplicity           Mult            ....    1
 Number of Electrons    NEL             ....   66
 Basis Dimension        Dim             ....  315

ORBITAL ENERGIES
----------------

  NO   OCC          E(Eh)            E(eV)
   0   2.0000     -20.519479      -558.3634
   1   2.0000     -15.705282      -427.3625
   2   2.0000     -15.661202      -426.1630
   3   2.0000     -15.619867      -425.0382
   4   2.0000     -15.597573      -424.4316
   5   2.0000     -11.362486      -309.1889
   6   2.0000     -11.350627      -308.8663
   7   2.0000     -11.272798      -306.7484
   8   2.0000     -11.238049      -305.8029
   9   2.0000      -1.451301       -39.4919
  10   2.0000      -1.376334       -37.4520
  11   2.0000      -1.283358       -34.9219
  12   2.0000      -1.221221       -33.2311
  13   2.0000      -1.085175       -29.5291
  14   2.0000      -1.005562       -27.3627
  15   2.0000      -0.926052       -25.1992
  16   2.0000      -0.887990       -24.1634
  17   2.0000      -0.783019       -21.3070
  18   2.0000      -0.728174       -19.8146
  19   2.0000      -0.698198       -18.9989
  20   2.0000      -0.681643       -18.5484
  21   2.0000      -0.678898       -18.4738
  22   2.0000      -0.629161       -17.1203
  23   2.0000      -0.610879       -16.6229
  24   2.0000      -0.591516       -16.0960
  25   2.0000      -0.572244       -15.5715
  26   2.0000      -0.560549       -15.2533
  27   2.0000      -0.538153       -14.6439
  28   2.0000      -0.521517       -14.1912
  29   2.0000      -0.462579       -12.5874
  30   2.0000      -0.422332       -11.4922
  31   2.0000      -0.394378       -10.7316
  32   2.0000      -0.345835        -9.4106
  33   0.0000       0.073480         1.9995
  34   0.0000       0.124360         3.3840
  35   0.0000       0.145306         3.9540
  36   0.0000       0.155619         4.2346
  37   0.0000       0.170495         4.6394

MULLIKEN ATOMIC CHARGES
-----------------------
   0 C :   -0.304894
   1 N :    0.107209
   2 N :   -0.153956
   3 N :   -0.135940
   4 C :    0.256346
   5 N :   -0.497802
   6 C :   -0.259946
   7 C :    0.202707
   8 O :   -0.377431
   9 H :    0.157905
  10 H :    0.169269
  11 H :    0.158232
  12 H :    0.272449
  13 H :    0.259415
  14 H :    0.146436
Sum of atomic charges:    0.0000000

LOEWDIN ATOMIC CHARGES
----------------------
   0 C :   -0.270221
   1 N :    0.167781
   2 N :    0.003280
   3 N :    0.037419
   4 C :   -0.340141
   5 N :   -0.018264
   6 C :   -0.125181
   7 C :   -0.433456
   8 O :    0.079447
   9 H :    0.129497
  10 H :    0.129146
  11 H :    0.129622
  12 H :    0.179757
  13 H :    0.173876
  14 H :    0.157439

  Mayer bond orders larger than 0.1
B(  0-C ,  1-N ) :   0.8559 B(  0-C ,  9-H ) :   0.9269 B(  0-C , 10-H ) :   0.9204
B(  0-C , 11-H ) :   0.9269 B(  1-N ,  2-N ) :   1.0606 B(  1-N ,  7-C ) :   0.9941
B(  2-N ,  3-N ) :   1.3491 B(  3-N ,  4-C ) :   1.2058 B(  4-C ,  5-N ) :   1.1246
B(  4-C ,  6-C ) :   1.3661 B(  5-N , 12-H ) :   0.8553 B(  5-N , 13-H ) :   0.8751
B(  6-C ,  7-C ) :   1.1847 B(  6-C , 14-H ) :   0.9004 B(  7-C ,  8-O ) :   1.8820

MP2 TOTAL ENERGY:     -449.398800884 Eh
FINAL SINGLE POINT ENERGY      -449.398800883890

DIPOLE MOMENT
-------------
                                X             Y             Z
Electronic contribution:     -0.09135      -1.60081      -0.10871
Nuclear contribution   :      0.33404       0.66339      -0.18066
                        -----------------------------------------
Total Dipole Moment    :      0.24269      -0.93742      -0.28937
                        -----------------------------------------
Magnitude (a.u.)       :      1.01064
Magnitude (Debye)      :      2.56884

                             ****ORCA TERMINATED NORMALLY****
TOTAL RUN TIME: 0 days 0 hours 16 minutes 54 seconds 219 msec
