                         Program Version 3.0.3 - RELEASE   -
|  1> ! RI-MP2 RIJK def2-TZVP def2-TZVP/C def2-TZVP/JK TIGHTSCF
|  2> % maxcore 2000
|  3> % mp2 density relaxed end
|  4> *xyz 0 1
|  5>  C       -0.0467253261     1.5293912886    -0.0045354441
|  6>  N        1.2457574820     0.7748753323     0.0493508095
|  7>  C       -0.0097268644     0.0691511538     0.0061916513
|  8>  C       -0.5454904073    -1.0255948889     0.9419971127
|  9>  N       -1.7730659100    -1.0424554851     0.0241517985
| 10>  C       -0.5769206132    -1.0093033985    -0.9305701700
| 11>  C        0.1301023162    -2.0306830419    -0.0125956366
| 12>  C        1.3055233273    -2.8860286490    -0.0360745458
| 13>  O       -0.0467592103    -3.4208739085    -0.0219787624
| 14>  H       -0.2811566149     2.0845668498     0.8987396784
| 15>  H       -0.3144502955     2.0316260289    -0.9303140916
| 16>  H        1.6948035646     0.7820680256    -0.8636770196
| 17>  H       -0.6244359665    -1.0324260387     2.0277742471
| 18>  H       -2.1533385879    -1.9938961615     0.0219681176
| 19>  H       -0.6929024194    -0.9995083689    -2.0144846245
| 20>  H        1.8502823132    -3.0473756639    -0.9647406682
| 21>  H        1.8757768521    -3.0567452340     0.8749819876
| 22> *
| 23>
| 24>                          ****END OF INPUT****

CARTESIAN COORDINATES (ANGSTROEM)
---------------------------------
  C     -0.046725    1.529391   -0.004535
  N      1.245757    0.774875    0.049351
  C     -0.009727    0.069151    0.006192
  C     -0.545490   -1.025595    0.941997
  N     -1.773066   -1.042455    0.024152
  C     -0.576921   -1.009303   -0.930570
  C      0.130102   -2.030683   -0.012596
  C      1.305523   -2.886029   -0.036075
  O     -0.046759   -3.420874   -0.021979
  H     -0.281157    2.084567    0.898740
  H     -0.314450    2.031626   -0.930314
  H      1.694804    0.782068   -0.863677
  H     -0.624436   -1.032426    2.027774
  H     -2.153339   -1.993896    0.021968
  H     -0.692902   -0.999508   -2.014485
  H      1.850282   -3.047376   -0.964741
  H      1.875777   -3.056745    0.874982

 Total Charge           Charge          ....    0
 Multiplicity           Mult            ....    1
 Number of Electrons    NEL             ....   66
 Basis Dimension        Dim             ....  327

ORBITAL ENERGIES
----------------

  NO   OCC          E(Eh)            E(eV)
   0   2.0000     -20.576044      -559.9026
   1   2.0000     -15.565303      -423.5534
   2   2.0000     -15.564904      -423.5426
   3   2.0000     -11.309171      -307.7382
   4   2.0000     -11.292617      -307.2877
   5   2.0000     -11.286844      -307.1306
   6   2.0000     -11.283615      -307.0428
   7   2.0000     -11.282422      -307.0103
   8   2.0000     -11.261373      -306.4375
   9   2.0000      -1.424740       -38.7691
  10   2.0000      -1.305670       -35.5291
  11   2.0000      -1.245050       -33.8795
  12   2.0000      -0.999100       -27.1869
  13   2.0000      -0.920050       -25.0358
  14   2.0000      -0.901190       -24.5226
  15   2.0000      -0.894598       -24.3433
  16   2.0000      -0.828379       -22.5413
  17   2.0000      -0.740906       -20.1611
  18   2.0000      -0.708985       -19.2925
  19   2.0000      -0.689058       -18.7502
  20   2.0000      -0.678231       -18.4556
  21   2.0000      -0.646220       -17.5846
  22   2.0000      -0.607140       -16.5211
  23   2.0000      -0.561392       -15.2763
  24   2.0000      -0.513244       -13.9661
  25   2.0000      -0.507460       -13.8087
  26   2.0000      -0.496747       -13.5172
  27   2.0000      -0.489380       -13.3167
  28   2.0000      -0.467316       -12.7163
  29   2.0000      -0.457747       -12.4559
  30   2.0000      -0.429527       -11.6880
  31   2.0000      -0.400958       -10.9106
  32   2.0000      -0.388809       -10.5800
  33   0.0000       0.130484         3.5506
  34   0.0000       0.155193         4.2230
  35   0.0000       0.163839         4.4583
  36   0.0000       0.178353         4.8532
  37   0.0000       0.188072         5.1177

MULLIKEN ATOMIC CHARGES
-----------------------
   0 C :   -0.195960
   1 N :   -0.400077
   2 C :    0.038927
   3 C :    0.003400
   4 N :   -0.294713
   5 C :   -0.054832
   6 C :    0.085909
   7 C :   -0.104801
   8 O :   -0.343900
   9 H :    0.128268
  10 H :    0.132961
  11 H :    0.226120
  12 H :    0.154920
  13 H :    0.218234
  14 H :    0.151891
  15 H :    0.124123
  16 H :    0.129529
Sum of atomic charges:    0.0000000

LOEWDIN ATOMIC CHARGES
----------------------
   0 C :   -0.217770
   1 N :    0.007914
   2 C :   -0.276286
   3 C :   -0.136009
   4 N :    0.025482
   5 C :   -0.150478
   6 C :   -0.301757
   7 C :   -0.216496
   8 O :    0.163557
   9 H :    0.130455
  10 H :    0.126542
  11 H :    0.168937
  12 H :    0.131665
  13 H :    0.164989
  14 H :    0.129524
  15 H :    0.123687
  16 H :    0.126045

  Mayer bond orders larger than 0.1
B(  0-C ,  1-N ) :   0.9622 B(  0-C ,  2-C ) :   0.9373 B(  0-C ,  9-H ) :   0.9118
B(  0-C , 10-H ) :   0.9209 B(  1-N ,  2-C ) :   0.9036 B(  1-N , 11-H ) :   0.8625
B(  2-C ,  3-C ) :   0.8404 B(  2-C ,  4-N ) :  -0.1312 B(  2-C ,  5-C ) :   0.8732
B(  3-C ,  4-N ) :   1.0178 B(  3-C ,  6-C ) :   0.9560 B(  3-C , 12-H ) :   0.8670
B(  4-N ,  5-C ) :   1.0173 B(  4-N , 13-H ) :   0.8810 B(  5-C ,  6-C ) :   0.9529
B(  5-C , 14-H ) :   0.8598 B(  6-C ,  7-C ) :   1.0182 B(  6-C ,  8-O ) :   0.9324
B(  7-C ,  8-O ) :   0.8837 B(  7-C , 15-H ) :   0.9164 B(  7-C , 16-H ) :   0.9134

MP2 TOTAL ENERGY:     -417.156564822 Eh
FINAL SINGLE POINT ENERGY      -417.156564821607

DIPOLE MOMENT
-------------
                                X             Y             Z
Electronic contribution:     -0.97720      -2.62507       0.33951
Nuclear contribution   :      1.49077       2.80779      -0.84807
                        -----------------------------------------
Total Dipole Moment    :      0.51357       0.18271      -0.50856
                        -----------------------------------------
Magnitude (a.u.)       :      0.74550
Magnitude (Debye)      :      1.89491

                             ****ORCA TERMINATED NORMALLY****
TOTAL RUN TIME: 0 days 0 hours 16 minutes 25 seconds 96 msec
