                         Program Version 3.0.3 - RELEASE   -
|  1> ! RI-MP2 RIJK def2-TZVP def2-TZVP/C def2-TZVP/JK TIGHTSCF
|  2> % maxcore 2000
|  3> % mp2 density relaxed end
|  4> *xyz 0 1
|  5>  O       -0.0676837487     1.3044807162    -0.3554865337
|  6>  C       -0.0262594145    -0.0975393595    -0.5324973918
|  7>  C       -1.3996864015    -0.7236502065    -0.3553553198
|  8>  O       -2.2413300565    -0.1631457755    -1.3533931544
|  9>  C       -3.5933123298    -0.5492414404    -1.2497467624
| 10>  C       -4.3221890683    -0.0487496863    -2.4831422361
| 11>  O       -3.8985090760    -0.7570084081    -3.6489551297
| 12>  C       -2.8517536439    -0.2523133162    -4.3373605584
| 13>  O       -2.3580827409    -0.8252929999    -5.2602348083
| 14>  H       -0.7607989695     1.6256160179    -0.9431166716
| 15>  H        0.3664482388    -0.3700810653    -1.5246357653
| 16>  H        0.6582093696    -0.4982092519     0.2219463752
| 17>  H       -1.3506748508    -1.8186748363    -0.4614247359
| 18>  H       -1.7933837080    -0.4872106613     0.6452531164
| 19>  H       -3.6829494504    -1.6447248652    -1.1922002982
| 20>  H       -4.0598199195    -0.1221263918    -0.3466278549
| 21>  H       -5.3959950801    -0.2261524031    -2.3875844313
| 22>  H       -4.1546672258     1.0286694684    -2.6057880475
| 23>  H       -2.5301979341     0.7372019948    -3.9647530524
| 24> *
| 25>
| 26>                          ****END OF INPUT****

CARTESIAN COORDINATES (ANGSTROEM)
---------------------------------
  O     -0.067684    1.304481   -0.355487
  C     -0.026259   -0.097539   -0.532497
  C     -1.399686   -0.723650   -0.355355
  O     -2.241330   -0.163146   -1.353393
  C     -3.593312   -0.549241   -1.249747
  C     -4.322189   -0.048750   -2.483142
  O     -3.898509   -0.757008   -3.648955
  C     -2.851754   -0.252313   -4.337361
  O     -2.358083   -0.825293   -5.260235
  H     -0.760799    1.625616   -0.943117
  H      0.366448   -0.370081   -1.524636
  H      0.658209   -0.498209    0.221946
  H     -1.350675   -1.818675   -0.461425
  H     -1.793384   -0.487211    0.645253
  H     -3.682949   -1.644725   -1.192200
  H     -4.059820   -0.122126   -0.346628
  H     -5.395995   -0.226152   -2.387584
  H     -4.154667    1.028669   -2.605788
  H     -2.530198    0.737202   -3.964753

 Total Charge           Charge          ....    0
 Multiplicity           Mult            ....    1
 Number of Electrons    NEL             ....   72
 Basis Dimension        Dim             ....  339

ORBITAL ENERGIES
----------------

  NO   OCC          E(Eh)            E(eV)
   0   2.0000     -20.610028      -560.8274
   1   2.0000     -20.585644      -560.1639
   2   2.0000     -20.559448      -559.4510
   3   2.0000     -20.548547      -559.1544
   4   2.0000     -11.381254      -309.6997
   5   2.0000     -11.313757      -307.8630
   6   2.0000     -11.304501      -307.6111
   7   2.0000     -11.293765      -307.3190
   8   2.0000     -11.283778      -307.0472
   9   2.0000      -1.463632       -39.8275
  10   2.0000      -1.409942       -38.3665
  11   2.0000      -1.372606       -37.3505
  12   2.0000      -1.362796       -37.0836
  13   2.0000      -1.064008       -28.9531
  14   2.0000      -0.998002       -27.1570
  15   2.0000      -0.892615       -24.2893
  16   2.0000      -0.849722       -23.1221
  17   2.0000      -0.841771       -22.9058
  18   2.0000      -0.737064       -20.0565
  19   2.0000      -0.716091       -19.4858
  20   2.0000      -0.703108       -19.1325
  21   2.0000      -0.685311       -18.6482
  22   2.0000      -0.673851       -18.3364
  23   2.0000      -0.662808       -18.0359
  24   2.0000      -0.616928       -16.7875
  25   2.0000      -0.606122       -16.4934
  26   2.0000      -0.585461       -15.9312
  27   2.0000      -0.582655       -15.8548
  28   2.0000      -0.557600       -15.1731
  29   2.0000      -0.533608       -14.5202
  30   2.0000      -0.521217       -14.1830
  31   2.0000      -0.501120       -13.6362
  32   2.0000      -0.463692       -12.6177
  33   2.0000      -0.455185       -12.3862
  34   2.0000      -0.453552       -12.3418
  35   2.0000      -0.450575       -12.2608
  36   0.0000       0.123278         3.3546
  37   0.0000       0.136488         3.7140
  38   0.0000       0.141272         3.8442
  39   0.0000       0.160650         4.3715
  40   0.0000       0.176536         4.8038

MULLIKEN ATOMIC CHARGES
-----------------------
   0 O :   -0.481783
   1 C :   -0.002945
   2 C :   -0.095285
   3 O :   -0.334062
   4 C :   -0.061678
   5 C :   -0.083062
   6 O :   -0.218253
   7 C :    0.210963
   8 O :   -0.274007
   9 H :    0.321390
  10 H :    0.111184
  11 H :    0.114076
  12 H :    0.108724
  13 H :    0.107290
  14 H :    0.116538
  15 H :    0.111088
  16 H :    0.144746
  17 H :    0.128961
  18 H :    0.076115
Sum of atomic charges:    0.0000000

LOEWDIN ATOMIC CHARGES
----------------------
   0 O :   -0.047181
   1 C :   -0.352383
   2 C :   -0.331421
   3 O :    0.149943
   4 C :   -0.333496
   5 C :   -0.301628
   6 O :    0.240062
   7 C :   -0.451421
   8 O :    0.120342
   9 H :    0.174299
  10 H :    0.122295
  11 H :    0.132170
  12 H :    0.125226
  13 H :    0.123968
  14 H :    0.130035
  15 H :    0.127655
  16 H :    0.138775
  17 H :    0.130434
  18 H :    0.102326

  Mayer bond orders larger than 0.1
B(  0-O ,  1-C ) :   0.9298 B(  0-O ,  9-H ) :   0.8360 B(  1-C ,  2-C ) :   0.9570
B(  1-C , 10-H ) :   0.9324 B(  1-C , 11-H ) :   0.9245 B(  2-C ,  3-O ) :   0.8902
B(  2-C , 12-H ) :   0.9206 B(  2-C , 13-H ) :   0.9221 B(  3-O ,  4-C ) :   0.9255
B(  4-C ,  5-C ) :   0.9512 B(  4-C , 14-H ) :   0.9206 B(  4-C , 15-H ) :   0.9154
B(  5-C ,  6-O ) :   0.8659 B(  5-C , 16-H ) :   0.9275 B(  5-C , 17-H ) :   0.9424
B(  6-O ,  7-C ) :   1.0554 B(  7-C ,  8-O ) :   2.0187 B(  7-C , 18-H ) :   0.9176

MP2 TOTAL ENERGY:     -496.540101158 Eh
FINAL SINGLE POINT ENERGY      -496.540101157526

DIPOLE MOMENT
-------------
                                X             Y             Z
Electronic contribution:     -1.08867      -0.18575      -7.19612
Nuclear contribution   :      0.13787       0.36321       8.48177
                        -----------------------------------------
Total Dipole Moment    :     -0.95080       0.17746       1.28565
                        -----------------------------------------
Magnitude (a.u.)       :      1.60885
Magnitude (Debye)      :      4.08938

                             ****ORCA TERMINATED NORMALLY****
TOTAL RUN TIME: 0 days 0 hours 13 minutes 43 seconds 814 msec
