                         Program Version 3.0.3 - RELEASE   -
|  1> ! RI-MP2 RIJK def2-TZVP def2-TZVP/C def2-TZVP/JK TIGHTSCF
|  2> % maxcore 2000
|  3> % mp2 density relaxed end
|  4> *xyz 0 1
|  5>  C       -0.0463367753     1.5323190980    -0.0434076772
|  6>  C       -0.0073820012     0.0322483636    -0.0286645697
|  7>  N       -0.0874422085    -0.6373449904    -1.1712874044
|  8>  C       -0.0493045864    -1.9779973904    -1.1217874945
|  9>  C        0.0695065072    -2.6565759580     0.0780048573
| 10>  N        0.1520451684    -2.0031088179     1.2460033543
| 11>  C        0.1137344047    -0.6851137648     1.1848558000
| 12>  O        0.1941564315     0.0121770298     2.3366369880
| 13>  H        0.8659056182     1.9538947380     0.3930214693
| 14>  H       -0.1506301216     1.8834040859    -1.0708107045
| 15>  H       -0.8814392792     1.9102411483     0.5565047431
| 16>  H       -0.1160250901    -2.5094226684    -2.0660296818
| 17>  H        0.1001107970    -3.7416115730     0.1178791794
| 18>  H        0.2705747153    -0.6420881706     3.0455733208
| 19> *
| 20>
| 21>                          ****END OF INPUT****

CARTESIAN COORDINATES (ANGSTROEM)
---------------------------------
  C     -0.046337    1.532319   -0.043408
  C     -0.007382    0.032248   -0.028665
  N     -0.087442   -0.637345   -1.171287
  C     -0.049305   -1.977997   -1.121787
  C      0.069507   -2.656576    0.078005
  N      0.152045   -2.003109    1.246003
  C      0.113734   -0.685114    1.184856
  O      0.194156    0.012177    2.336637
  H      0.865906    1.953895    0.393021
  H     -0.150630    1.883404   -1.070811
  H     -0.881439    1.910241    0.556505
  H     -0.116025   -2.509423   -2.066030
  H      0.100111   -3.741612    0.117879
  H      0.270575   -0.642088    3.045573

 Total Charge           Charge          ....    0
 Multiplicity           Mult            ....    1
 Number of Electrons    NEL             ....   58
 Basis Dimension        Dim             ....  284

ORBITAL ENERGIES
----------------

  NO   OCC          E(Eh)            E(eV)
   0   2.0000     -20.604347      -560.6728
   1   2.0000     -15.587484      -424.1570
   2   2.0000     -15.584834      -424.0849
   3   2.0000     -11.345922      -308.7382
   4   2.0000     -11.286966      -307.1340
   5   2.0000     -11.281268      -306.9789
   6   2.0000     -11.267567      -306.6061
   7   2.0000     -11.227543      -305.5170
   8   2.0000      -1.437313       -39.1113
   9   2.0000      -1.299015       -35.3480
  10   2.0000      -1.217396       -33.1270
  11   2.0000      -1.063208       -28.9313
  12   2.0000      -0.971611       -26.4389
  13   2.0000      -0.900438       -24.5022
  14   2.0000      -0.858369       -23.3574
  15   2.0000      -0.756955       -20.5978
  16   2.0000      -0.726607       -19.7720
  17   2.0000      -0.672544       -18.3008
  18   2.0000      -0.636343       -17.3158
  19   2.0000      -0.630833       -17.1658
  20   2.0000      -0.595023       -16.1914
  21   2.0000      -0.569298       -15.4914
  22   2.0000      -0.558597       -15.2002
  23   2.0000      -0.540988       -14.7210
  24   2.0000      -0.532190       -14.4816
  25   2.0000      -0.492454       -13.4004
  26   2.0000      -0.429778       -11.6948
  27   2.0000      -0.415598       -11.3090
  28   2.0000      -0.329691        -8.9713
  29   0.0000       0.089584         2.4377
  30   0.0000       0.129411         3.5214
  31   0.0000       0.142815         3.8862
  32   0.0000       0.163713         4.4549
  33   0.0000       0.172107         4.6833

MULLIKEN ATOMIC CHARGES
-----------------------
   0 C :   -0.383122
   1 C :    0.114377
   2 N :   -0.261043
   3 C :   -0.041848
   4 C :   -0.031534
   5 N :   -0.281841
   6 C :    0.248084
   7 O :   -0.412895
   8 H :    0.144449
   9 H :    0.152677
  10 H :    0.144686
  11 H :    0.135707
  12 H :    0.135784
  13 H :    0.336519
Sum of atomic charges:    0.0000000

LOEWDIN ATOMIC CHARGES
----------------------
   0 C :   -0.262314
   1 C :   -0.225558
   2 N :    0.164244
   3 C :   -0.228709
   4 C :   -0.222606
   5 N :    0.139472
   6 C :   -0.346251
   7 O :    0.091783
   8 H :    0.136912
   9 H :    0.134914
  10 H :    0.136837
  11 H :    0.141207
  12 H :    0.141195
  13 H :    0.198875

  Mayer bond orders larger than 0.1
B(  0-C ,  1-C ) :   0.8985 B(  0-C ,  8-H ) :   0.9203 B(  0-C ,  9-H ) :   0.9446
B(  0-C , 10-H ) :   0.9206 B(  1-C ,  2-N ) :   1.4617 B(  1-C ,  6-C ) :   1.2436
B(  2-N ,  3-C ) :   1.3406 B(  3-C ,  4-C ) :   1.3657 B(  3-C , 11-H ) :   0.9329
B(  4-C ,  5-N ) :   1.3421 B(  4-C , 12-H ) :   0.9289 B(  5-N ,  6-C ) :   1.4061
B(  6-C ,  7-O ) :   1.1500 B(  7-O , 13-H ) :   0.8106

MP2 TOTAL ENERGY:     -378.146398911 Eh
FINAL SINGLE POINT ENERGY      -378.146398911050

DIPOLE MOMENT
-------------
                                X             Y             Z
Electronic contribution:      0.20511      -3.40299       1.41520
Nuclear contribution   :     -0.17380       3.17568      -1.11587
                        -----------------------------------------
Total Dipole Moment    :      0.03131      -0.22732       0.29933
                        -----------------------------------------
Magnitude (a.u.)       :      0.37716
Magnitude (Debye)      :      0.95866

                             ****ORCA TERMINATED NORMALLY****
TOTAL RUN TIME: 0 days 0 hours 10 minutes 53 seconds 617 msec
