                         Program Version 3.0.3 - RELEASE   -
|  1> ! RI-MP2 RIJK def2-TZVP def2-TZVP/C def2-TZVP/JK TIGHTSCF
|  2> % maxcore 2000
|  3> % mp2 density relaxed end
|  4> *xyz 0 1
|  5>  O        0.0333711468    -0.0515058963    -0.2335356178
|  6>  C        0.0529709694     1.1573718638    -0.1850632994
|  7>  N        1.1789113504     1.9112447834     0.0348539961
|  8>  C        2.4606076475     1.3921218044     0.2724576818
|  9>  N        3.3804039609     2.2333714231     0.5311950401
| 10>  C        2.7754067470     3.5696781164     0.4884434587
| 11>  C        3.0137379525     4.3412437473    -0.8409125175
| 12>  C        1.5225344085     4.1104534967    -1.2413080091
| 13>  C        1.2681526073     3.3698897135     0.1019061083
| 14>  H       -0.8460407758     1.7891139676    -0.3153355975
| 15>  H        2.5881044665     0.3178825985     0.2246817881
| 16>  H        3.0075733711     4.1166895082     1.4048756290
| 17>  H        3.2869923107     5.3902132211    -0.7078595076
| 18>  H        3.7532681953     3.8653914019    -1.4871340562
| 19>  H        0.9365683376     5.0255519011    -1.3534540217
| 20>  H        1.3665676654     3.4888134584    -2.1258139741
| 21>  H        0.4909525888     3.7855179111     0.7457172589
| 22> *
| 23>
| 24>                          ****END OF INPUT****

CARTESIAN COORDINATES (ANGSTROEM)
---------------------------------
  O      0.033371   -0.051506   -0.233536
  C      0.052971    1.157372   -0.185063
  N      1.178911    1.911245    0.034854
  C      2.460608    1.392122    0.272458
  N      3.380404    2.233371    0.531195
  C      2.775407    3.569678    0.488443
  C      3.013738    4.341244   -0.840913
  C      1.522534    4.110453   -1.241308
  C      1.268153    3.369890    0.101906
  H     -0.846041    1.789114   -0.315336
  H      2.588104    0.317883    0.224682
  H      3.007573    4.116690    1.404876
  H      3.286992    5.390213   -0.707860
  H      3.753268    3.865391   -1.487134
  H      0.936568    5.025552   -1.353454
  H      1.366568    3.488813   -2.125814
  H      0.490953    3.785518    0.745717

 Total Charge           Charge          ....    0
 Multiplicity           Mult            ....    1
 Number of Electrons    NEL             ....   66
 Basis Dimension        Dim             ....  327

ORBITAL ENERGIES
----------------

  NO   OCC          E(Eh)            E(eV)
   0   2.0000     -20.544210      -559.0364
   1   2.0000     -15.614045      -424.8798
   2   2.0000     -15.558678      -423.3731
   3   2.0000     -11.369526      -309.3805
   4   2.0000     -11.320869      -308.0565
   5   2.0000     -11.288715      -307.1816
   6   2.0000     -11.273260      -306.7610
   7   2.0000     -11.243130      -305.9411
   8   2.0000     -11.236415      -305.7584
   9   2.0000      -1.406668       -38.2774
  10   2.0000      -1.326424       -36.0938
  11   2.0000      -1.195086       -32.5199
  12   2.0000      -1.122710       -30.5505
  13   2.0000      -0.936629       -25.4870
  14   2.0000      -0.931108       -25.3367
  15   2.0000      -0.890311       -24.2266
  16   2.0000      -0.783910       -21.3313
  17   2.0000      -0.773879       -21.0583
  18   2.0000      -0.725445       -19.7404
  19   2.0000      -0.687436       -18.7061
  20   2.0000      -0.663739       -18.0613
  21   2.0000      -0.635815       -17.3014
  22   2.0000      -0.611460       -16.6387
  23   2.0000      -0.599862       -16.3231
  24   2.0000      -0.567478       -15.4419
  25   2.0000      -0.533056       -14.5052
  26   2.0000      -0.517642       -14.0857
  27   2.0000      -0.502837       -13.6829
  28   2.0000      -0.489901       -13.3309
  29   2.0000      -0.468803       -12.7568
  30   2.0000      -0.445808       -12.1311
  31   2.0000      -0.421498       -11.4695
  32   2.0000      -0.359438        -9.7808
  33   0.0000       0.118347         3.2204
  34   0.0000       0.129157         3.5145
  35   0.0000       0.148952         4.0532
  36   0.0000       0.152443         4.1482
  37   0.0000       0.166416         4.5284

MULLIKEN ATOMIC CHARGES
-----------------------
   0 O :   -0.333102
   1 C :    0.140506
   2 N :   -0.077429
   3 C :   -0.004284
   4 N :   -0.243997
   5 C :    0.043473
   6 C :   -0.242968
   7 C :   -0.227020
   8 C :   -0.087693
   9 H :    0.097015
  10 H :    0.175196
  11 H :    0.121345
  12 H :    0.123391
  13 H :    0.128071
  14 H :    0.123241
  15 H :    0.124963
  16 H :    0.139290
Sum of atomic charges:   -0.0000000

LOEWDIN ATOMIC CHARGES
----------------------
   0 O :    0.082732
   1 C :   -0.386963
   2 N :    0.203800
   3 C :   -0.238941
   4 N :    0.103983
   5 C :   -0.222233
   6 C :   -0.211312
   7 C :   -0.216805
   8 C :   -0.194737
   9 H :    0.117236
  10 H :    0.146582
  11 H :    0.139372
  12 H :    0.131814
  13 H :    0.136549
  14 H :    0.132729
  15 H :    0.134697
  16 H :    0.141496

  Mayer bond orders larger than 0.1
B(  0-O ,  1-C ) :   1.9158 B(  1-C ,  2-N ) :   1.0635 B(  1-C ,  9-H ) :   0.9299
B(  2-N ,  3-C ) :   0.9968 B(  2-N ,  8-C ) :   0.8894 B(  3-C ,  4-N ) :   1.8132
B(  3-C , 10-H ) :   0.9106 B(  4-N ,  5-C ) :   0.9433 B(  5-C ,  6-C ) :   0.9155
B(  5-C ,  8-C ) :   0.9178 B(  5-C , 11-H ) :   0.9337 B(  6-C ,  7-C ) :   0.9528
B(  6-C , 12-H ) :   0.9213 B(  6-C , 13-H ) :   0.9163 B(  7-C ,  8-C ) :   0.9180
B(  7-C , 14-H ) :   0.9195 B(  7-C , 15-H ) :   0.9117 B(  8-C , 16-H ) :   0.9112

MP2 TOTAL ENERGY:     -417.319759239 Eh
FINAL SINGLE POINT ENERGY      -417.319759239357

DIPOLE MOMENT
-------------
                                X             Y             Z
Electronic contribution:     -1.18675      -6.33978       2.26894
Nuclear contribution   :      0.82622       7.84061      -2.40114
                        -----------------------------------------
Total Dipole Moment    :     -0.36053       1.50083      -0.13220
                        -----------------------------------------
Magnitude (a.u.)       :      1.54918
Magnitude (Debye)      :      3.93769

                             ****ORCA TERMINATED NORMALLY****
TOTAL RUN TIME: 0 days 0 hours 17 minutes 39 seconds 748 msec
