                         Program Version 3.0.3 - RELEASE   -
|  1> ! RI-MP2 RIJK def2-TZVP def2-TZVP/C def2-TZVP/JK TIGHTSCF
|  2> % maxcore 2000
|  3> % mp2 density relaxed end
|  4> *xyz 0 1
|  5>  O        0.1756761134     0.4509970972    -1.4446888863
|  6>  C       -0.1504363306     0.3475769865    -0.0595688256
|  7>  C       -1.4359758615    -0.4208223177     0.0743252489
|  8>  C       -1.5154336961    -1.9165053370    -0.1998769404
|  9>  C       -0.2899822099    -2.7682957425    -0.5088201500
| 10>  C        0.1261928594    -3.5250984487     0.7595449589
| 11>  C        0.4033008326    -2.5396265066     1.8882691374
| 12>  O       -0.6688115758    -1.6369743483     2.1725719596
| 13>  C       -1.6543232154    -1.4006612510     1.2080694609
| 14>  H        0.9538835694     1.0115304275    -1.5234482111
| 15>  H        0.6569614636    -0.1444517048     0.4988659995
| 16>  H       -0.2816584751     1.3448953009     0.3877822460
| 17>  H       -2.3134549141     0.1429585021    -0.2303985413
| 18>  H       -2.4349825775    -2.2500175854    -0.6705533661
| 19>  H       -0.5243376292    -3.4704063415    -1.3137787933
| 20>  H        0.5381726860    -2.1508357869    -0.8724724939
| 21>  H       -0.6716935297    -4.2170884763     1.0557634037
| 22>  H        1.0301829465    -4.1212251246     0.5922239799
| 23>  H        0.6075455620    -3.0647860237     2.8278148837
| 24>  H        1.3046269013    -1.9565863968     1.6388929809
| 25>  H       -2.6366317093    -1.4107468026     1.6725799485
| 26> *
| 27>
| 28>                          ****END OF INPUT****

CARTESIAN COORDINATES (ANGSTROEM)
---------------------------------
  O      0.175676    0.450997   -1.444689
  C     -0.150436    0.347577   -0.059569
  C     -1.435976   -0.420822    0.074325
  C     -1.515434   -1.916505   -0.199877
  C     -0.289982   -2.768296   -0.508820
  C      0.126193   -3.525098    0.759545
  C      0.403301   -2.539627    1.888269
  O     -0.668812   -1.636974    2.172572
  C     -1.654323   -1.400661    1.208069
  H      0.953884    1.011530   -1.523448
  H      0.656961   -0.144452    0.498866
  H     -0.281658    1.344895    0.387782
  H     -2.313455    0.142959   -0.230399
  H     -2.434983   -2.250018   -0.670553
  H     -0.524338   -3.470406   -1.313779
  H      0.538173   -2.150836   -0.872472
  H     -0.671694   -4.217088    1.055763
  H      1.030183   -4.121225    0.592224
  H      0.607546   -3.064786    2.827815
  H      1.304627   -1.956586    1.638893
  H     -2.636632   -1.410747    1.672580

 Total Charge           Charge          ....    0
 Multiplicity           Mult            ....    1
 Number of Electrons    NEL             ....   70
 Basis Dimension        Dim             ....  351

ORBITAL ENERGIES
----------------

  NO   OCC          E(Eh)            E(eV)
   0   2.0000     -20.552531      -559.2628
   1   2.0000     -20.551571      -559.2367
   2   2.0000     -11.276243      -306.8422
   3   2.0000     -11.274893      -306.8054
   4   2.0000     -11.273700      -306.7730
   5   2.0000     -11.226295      -305.4830
   6   2.0000     -11.222739      -305.3863
   7   2.0000     -11.221995      -305.3660
   8   2.0000     -11.221692      -305.3578
   9   2.0000      -1.371978       -37.3334
  10   2.0000      -1.354616       -36.8610
  11   2.0000      -1.138021       -30.9671
  12   2.0000      -1.059961       -28.8430
  13   2.0000      -0.958574       -26.0841
  14   2.0000      -0.907409       -24.6918
  15   2.0000      -0.859004       -23.3747
  16   2.0000      -0.760514       -20.6946
  17   2.0000      -0.733630       -19.9631
  18   2.0000      -0.704217       -19.1627
  19   2.0000      -0.691450       -18.8153
  20   2.0000      -0.645398       -17.5622
  21   2.0000      -0.634317       -17.2606
  22   2.0000      -0.620916       -16.8960
  23   2.0000      -0.593955       -16.1623
  24   2.0000      -0.587049       -15.9744
  25   2.0000      -0.555516       -15.1163
  26   2.0000      -0.546030       -14.8582
  27   2.0000      -0.509484       -13.8638
  28   2.0000      -0.497152       -13.5282
  29   2.0000      -0.480264       -13.0686
  30   2.0000      -0.467282       -12.7154
  31   2.0000      -0.460405       -12.5282
  32   2.0000      -0.443679       -12.0731
  33   2.0000      -0.387473       -10.5437
  34   2.0000      -0.370138       -10.0720
  35   0.0000       0.131698         3.5837
  36   0.0000       0.145776         3.9668
  37   0.0000       0.158267         4.3067
  38   0.0000       0.178691         4.8624
  39   0.0000       0.190318         5.1788

MULLIKEN ATOMIC CHARGES
-----------------------
   0 O :   -0.465815
   1 C :   -0.102036
   2 C :   -0.117877
   3 C :   -0.087102
   4 C :   -0.262563
   5 C :   -0.214011
   6 C :   -0.073685
   7 O :   -0.320622
   8 C :    0.030463
   9 H :    0.312183
  10 H :    0.108231
  11 H :    0.113430
  12 H :    0.113217
  13 H :    0.125130
  14 H :    0.126713
  15 H :    0.145724
  16 H :    0.112547
  17 H :    0.121089
  18 H :    0.122969
  19 H :    0.091445
  20 H :    0.120572
Sum of atomic charges:    0.0000000

LOEWDIN ATOMIC CHARGES
----------------------
   0 O :   -0.052167
   1 C :   -0.326631
   2 C :   -0.198505
   3 C :   -0.183560
   4 C :   -0.239488
   5 C :   -0.268681
   6 C :   -0.309228
   7 O :    0.180388
   8 C :   -0.266138
   9 H :    0.169735
  10 H :    0.121258
  11 H :    0.123178
  12 H :    0.150899
  13 H :    0.149327
  14 H :    0.141336
  15 H :    0.145274
  16 H :    0.140263
  17 H :    0.140662
  18 H :    0.127355
  19 H :    0.117003
  20 H :    0.137720

  Mayer bond orders larger than 0.1
B(  0-O ,  1-C ) :   1.0069 B(  0-O ,  9-H ) :   0.8485 B(  1-C ,  2-C ) :   0.9199
B(  1-C , 10-H ) :   0.9247 B(  1-C , 11-H ) :   0.9252 B(  2-C ,  3-C ) :   0.8789
B(  2-C ,  8-C ) :   0.8595 B(  2-C , 12-H ) :   0.9155 B(  3-C ,  4-C ) :   0.8894
B(  3-C ,  8-C ) :   0.8623 B(  3-C , 13-H ) :   0.9230 B(  4-C ,  5-C ) :   0.9088
B(  4-C , 14-H ) :   0.9360 B(  4-C , 15-H ) :   0.9387 B(  5-C ,  6-C ) :   0.9470
B(  5-C , 16-H ) :   0.9240 B(  5-C , 17-H ) :   0.9245 B(  6-C ,  7-O ) :   0.9135
B(  6-C , 18-H ) :   0.9290 B(  6-C , 19-H ) :   0.9332 B(  7-O ,  8-C ) :   0.9812
B(  8-C , 20-H ) :   0.9483

MP2 TOTAL ENERGY:     -423.499768719 Eh
FINAL SINGLE POINT ENERGY      -423.499768718753

DIPOLE MOMENT
-------------
                                X             Y             Z
Electronic contribution:     -1.86557       2.54573       0.84675
Nuclear contribution   :      2.26172      -2.64849      -0.90809
                        -----------------------------------------
Total Dipole Moment    :      0.39615      -0.10276      -0.06134
                        -----------------------------------------
Magnitude (a.u.)       :      0.41383
Magnitude (Debye)      :      1.05187

                             ****ORCA TERMINATED NORMALLY****
TOTAL RUN TIME: 0 days 0 hours 29 minutes 42 seconds 571 msec
