                         Program Version 3.0.3 - RELEASE   -
|  1> ! RI-MP2 RIJK def2-TZVP def2-TZVP/C def2-TZVP/JK TIGHTSCF
|  2> % maxcore 2000
|  3> % mp2 density relaxed end
|  4> *xyz 0 1
|  5>  O       -0.1571282911     1.3939940647     0.0011570662
|  6>  C       -0.0787518986     0.0030860193     0.0683167466
|  7>  C       -0.4540421777    -0.7612523072     1.2843125521
|  8>  C       -1.5368480479    -0.0070855128     2.0648077978
|  9>  C       -2.4313453811    -0.0881446567     0.8079418766
| 10>  O       -3.5886620004     0.1274089842     0.6131429653
| 11>  C       -1.3688742216    -0.7919112194    -0.0217543916
| 12>  C       -1.5894759133    -1.7921874547    -1.0048622120
| 13>  C       -1.7911886890    -2.6435235825    -1.8307934351
| 14>  H        0.6341332661     1.7606766506     0.4118850599
| 15>  H        0.7123255776    -0.4410501403    -0.5357714981
| 16>  H        0.1272214650    -1.5931844709     1.6598913952
| 17>  H       -1.9807286363    -0.5882239595     2.8772843963
| 18>  H       -1.2780632224     0.9914169093     2.4224788215
| 19>  H       -1.9781302393    -3.3909479543    -2.5613988107
| 20> *
| 21>
| 22>                          ****END OF INPUT****

CARTESIAN COORDINATES (ANGSTROEM)
---------------------------------
  O     -0.157128    1.393994    0.001157
  C     -0.078752    0.003086    0.068317
  C     -0.454042   -0.761252    1.284313
  C     -1.536848   -0.007086    2.064808
  C     -2.431345   -0.088145    0.807942
  O     -3.588662    0.127409    0.613143
  C     -1.368874   -0.791911   -0.021754
  C     -1.589476   -1.792187   -1.004862
  C     -1.791189   -2.643524   -1.830793
  H      0.634133    1.760677    0.411885
  H      0.712326   -0.441050   -0.535771
  H      0.127221   -1.593184    1.659891
  H     -1.980729   -0.588224    2.877284
  H     -1.278063    0.991417    2.422479
  H     -1.978130   -3.390948   -2.561399

 Total Charge           Charge          ....    0
 Multiplicity           Mult            ....    1
 Number of Electrons    NEL             ....   64
 Basis Dimension        Dim             ....  315

ORBITAL ENERGIES
----------------

  NO   OCC          E(Eh)            E(eV)
   0   2.0000     -20.589472      -560.2680
   1   2.0000     -20.552846      -559.2714
   2   2.0000     -11.344187      -308.6910
   3   2.0000     -11.326026      -308.1968
   4   2.0000     -11.282804      -307.0207
   5   2.0000     -11.278368      -306.9000
   6   2.0000     -11.255942      -306.2898
   7   2.0000     -11.245152      -305.9961
   8   2.0000     -11.234202      -305.6982
   9   2.0000      -1.405770       -38.2530
  10   2.0000      -1.396585       -38.0030
  11   2.0000      -1.213627       -33.0245
  12   2.0000      -1.047965       -28.5166
  13   2.0000      -0.995997       -27.1025
  14   2.0000      -0.911799       -24.8113
  15   2.0000      -0.826538       -22.4913
  16   2.0000      -0.796623       -21.6772
  17   2.0000      -0.721305       -19.6277
  18   2.0000      -0.708431       -19.2774
  19   2.0000      -0.701674       -19.0935
  20   2.0000      -0.657839       -17.9007
  21   2.0000      -0.649387       -17.6707
  22   2.0000      -0.615401       -16.7459
  23   2.0000      -0.592477       -16.1221
  24   2.0000      -0.546758       -14.8780
  25   2.0000      -0.533636       -14.5210
  26   2.0000      -0.514650       -14.0043
  27   2.0000      -0.477002       -12.9799
  28   2.0000      -0.457284       -12.4433
  29   2.0000      -0.426682       -11.6106
  30   2.0000      -0.381131       -10.3711
  31   2.0000      -0.364601        -9.9213
  32   0.0000       0.119094         3.2407
  33   0.0000       0.133783         3.6404
  34   0.0000       0.143196         3.8966
  35   0.0000       0.159764         4.3474
  36   0.0000       0.161891         4.4053

MULLIKEN ATOMIC CHARGES
-----------------------
   0 O :   -0.444422
   1 C :   -0.002432
   2 C :   -0.128898
   3 C :   -0.175058
   4 C :    0.130230
   5 O :   -0.236417
   6 C :   -0.136542
   7 C :    0.012303
   8 C :   -0.094514
   9 H :    0.326168
  10 H :    0.128741
  11 H :    0.155761
  12 H :    0.144995
  13 H :    0.123334
  14 H :    0.196752
Sum of atomic charges:    0.0000000

LOEWDIN ATOMIC CHARGES
----------------------
   0 O :    0.018038
   1 C :   -0.267089
   2 C :   -0.113557
   3 C :   -0.181626
   4 C :   -0.266578
   5 O :    0.182193
   6 C :   -0.128965
   7 C :   -0.071809
   8 C :   -0.070895
   9 H :    0.185750
  10 H :    0.151256
  11 H :    0.144030
  12 H :    0.150997
  13 H :    0.139294
  14 H :    0.128961

  Mayer bond orders larger than 0.1
B(  0-O ,  1-C ) :   1.1202 B(  0-O ,  9-H ) :   0.8347 B(  1-C ,  2-C ) :   0.9076
B(  1-C ,  6-C ) :   0.7798 B(  1-C , 10-H ) :   0.9606 B(  2-C ,  3-C ) :   0.9492
B(  2-C ,  6-C ) :   0.7873 B(  2-C , 11-H ) :   0.8964 B(  3-C ,  4-C ) :   0.9411
B(  3-C ,  6-C ) :  -0.1270 B(  3-C , 12-H ) :   0.9109 B(  3-C , 13-H ) :   0.8809
B(  4-C ,  5-O ) :   2.0726 B(  4-C ,  6-C ) :   0.8592 B(  6-C ,  7-C ) :   1.2336
B(  6-C ,  8-C ) :  -0.1863 B(  7-C ,  8-C ) :   2.5870 B(  8-C , 14-H ) :   0.8748

MP2 TOTAL ENERGY:     -419.857964171 Eh
FINAL SINGLE POINT ENERGY      -419.857964171228

DIPOLE MOMENT
-------------
                                X             Y             Z
Electronic contribution:     -2.84726       0.26380      -2.00537
Nuclear contribution   :      4.51488      -0.62841       2.60284
                        -----------------------------------------
Total Dipole Moment    :      1.66762      -0.36461       0.59747
                        -----------------------------------------
Magnitude (a.u.)       :      1.80856
Magnitude (Debye)      :      4.59698

                             ****ORCA TERMINATED NORMALLY****
TOTAL RUN TIME: 0 days 0 hours 15 minutes 6 seconds 769 msec
