                         Program Version 3.0.3 - RELEASE   -
|  1> ! RI-MP2 RIJK def2-TZVP def2-TZVP/C def2-TZVP/JK TIGHTSCF
|  2> % maxcore 2000
|  3> % mp2 density relaxed end
|  4> *xyz 0 1
|  5>  C        0.0539503196     1.5046710121    -0.0249234155
|  6>  C       -0.0304483654     0.0001067065     0.0785874213
|  7>  C       -1.2630616048    -0.6471080629    -0.5504314572
|  8>  O       -1.7464942339    -1.7883011637     0.1354174194
|  9>  C       -0.7195799636    -2.6878798572     0.5103058027
| 10>  C        0.1470333948    -2.0642815842     1.6119783687
| 11>  O        1.2554043715    -2.8833440491     1.9522565944
| 12>  C        0.6800068501    -0.7331279411     1.1407705449
| 13>  O        1.1995212677    -0.6968206271    -0.1925774389
| 14>  H        1.0112530375     1.8585699335     0.3649062810
| 15>  H       -0.0264844665     1.8246989580    -1.0700397424
| 16>  H       -0.7559792986     1.9823559750     0.5362442203
| 17>  H       -2.0930247750     0.0659562954    -0.5613800574
| 18>  H       -1.0160712842    -0.8983858029    -1.5951542411
| 19>  H       -1.2163735707    -3.5919677505     0.8771998399
| 20>  H       -0.0771826173    -2.9554524692    -0.3399843717
| 21>  H       -0.4886385333    -1.8707864948     2.4916668063
| 22>  H        0.9190561238    -3.6876274628     2.3603911110
| 23>  H        1.2695968483    -0.1786303149     1.8714991144
| 24> *
| 25>
| 26>                          ****END OF INPUT****

CARTESIAN COORDINATES (ANGSTROEM)
---------------------------------
  C      0.053950    1.504671   -0.024923
  C     -0.030448    0.000107    0.078587
  C     -1.263062   -0.647108   -0.550431
  O     -1.746494   -1.788301    0.135417
  C     -0.719580   -2.687880    0.510306
  C      0.147033   -2.064282    1.611978
  O      1.255404   -2.883344    1.952257
  C      0.680007   -0.733128    1.140771
  O      1.199521   -0.696821   -0.192577
  H      1.011253    1.858570    0.364906
  H     -0.026484    1.824699   -1.070040
  H     -0.755979    1.982356    0.536244
  H     -2.093025    0.065956   -0.561380
  H     -1.016071   -0.898386   -1.595154
  H     -1.216374   -3.591968    0.877200
  H     -0.077183   -2.955452   -0.339984
  H     -0.488639   -1.870786    2.491667
  H      0.919056   -3.687627    2.360391
  H      1.269597   -0.178630    1.871499

 Total Charge           Charge          ....    0
 Multiplicity           Mult            ....    1
 Number of Electrons    NEL             ....   70
 Basis Dimension        Dim             ....  339

ORBITAL ENERGIES
----------------

  NO   OCC          E(Eh)            E(eV)
   0   2.0000     -20.566528      -559.6437
   1   2.0000     -20.564406      -559.5859
   2   2.0000     -20.563966      -559.5740
   3   2.0000     -11.296462      -307.3923
   4   2.0000     -11.290383      -307.2269
   5   2.0000     -11.286513      -307.1216
   6   2.0000     -11.284868      -307.0769
   7   2.0000     -11.277848      -306.8859
   8   2.0000     -11.231253      -305.6179
   9   2.0000      -1.420103       -38.6430
  10   2.0000      -1.379920       -37.5495
  11   2.0000      -1.369571       -37.2679
  12   2.0000      -1.046584       -28.4790
  13   2.0000      -1.026158       -27.9232
  14   2.0000      -0.955187       -25.9920
  15   2.0000      -0.896809       -24.4034
  16   2.0000      -0.833610       -22.6837
  17   2.0000      -0.756272       -20.5792
  18   2.0000      -0.713512       -19.4156
  19   2.0000      -0.698561       -19.0088
  20   2.0000      -0.676002       -18.3949
  21   2.0000      -0.658547       -17.9200
  22   2.0000      -0.624531       -16.9944
  23   2.0000      -0.592565       -16.1245
  24   2.0000      -0.583395       -15.8750
  25   2.0000      -0.574195       -15.6246
  26   2.0000      -0.567233       -15.4352
  27   2.0000      -0.551248       -15.0002
  28   2.0000      -0.537830       -14.6351
  29   2.0000      -0.513126       -13.9629
  30   2.0000      -0.475046       -12.9267
  31   2.0000      -0.468017       -12.7354
  32   2.0000      -0.440523       -11.9872
  33   2.0000      -0.428001       -11.6465
  34   2.0000      -0.414144       -11.2694
  35   0.0000       0.128257         3.4900
  36   0.0000       0.142330         3.8730
  37   0.0000       0.168335         4.5806
  38   0.0000       0.178406         4.8547
  39   0.0000       0.188609         5.1323

MULLIKEN ATOMIC CHARGES
-----------------------
   0 C :   -0.436194
   1 C :    0.177624
   2 C :   -0.042208
   3 O :   -0.316477
   4 C :   -0.086922
   5 C :    0.065676
   6 O :   -0.452311
   7 C :    0.000379
   8 O :   -0.328927
   9 H :    0.146889
  10 H :    0.140577
  11 H :    0.138174
  12 H :    0.124713
  13 H :    0.106154
  14 H :    0.121028
  15 H :    0.122064
  16 H :    0.079311
  17 H :    0.316161
  18 H :    0.124288
Sum of atomic charges:    0.0000000

LOEWDIN ATOMIC CHARGES
----------------------
   0 C :   -0.266955
   1 C :   -0.320351
   2 C :   -0.272626
   3 O :    0.160452
   4 C :   -0.301535
   5 C :   -0.346641
   6 O :   -0.008110
   7 C :   -0.224106
   8 O :    0.189299
   9 H :    0.134734
  10 H :    0.132585
  11 H :    0.131680
  12 H :    0.137892
  13 H :    0.132558
  14 H :    0.127772
  15 H :    0.131460
  16 H :    0.141640
  17 H :    0.176675
  18 H :    0.143578

  Mayer bond orders larger than 0.1
B(  0-C ,  1-C ) :   0.8770 B(  0-C ,  9-H ) :   0.9399 B(  0-C , 10-H ) :   0.9370
B(  0-C , 11-H ) :   0.9304 B(  1-C ,  2-C ) :   0.8907 B(  1-C ,  7-C ) :   0.9402
B(  1-C ,  8-O ) :   0.9092 B(  2-C ,  3-O ) :   0.9508 B(  2-C , 12-H ) :   0.9267
B(  2-C , 13-H ) :   0.9327 B(  3-O ,  4-C ) :   0.9095 B(  4-C ,  5-C ) :   0.9179
B(  4-C , 14-H ) :   0.9226 B(  4-C , 15-H ) :   0.9307 B(  5-C ,  6-O ) :   1.0416
B(  5-C ,  7-C ) :   0.9054 B(  5-C , 16-H ) :   0.9239 B(  6-O , 17-H ) :   0.8447
B(  7-C ,  8-O ) :   0.8931 B(  7-C , 18-H ) :   0.9226

MP2 TOTAL ENERGY:     -459.417050538 Eh
FINAL SINGLE POINT ENERGY      -459.417050538018

DIPOLE MOMENT
-------------
                                X             Y             Z
Electronic contribution:      1.38136      -3.53332       0.75517
Nuclear contribution   :     -1.96588       3.72072      -0.30461
                        -----------------------------------------
Total Dipole Moment    :     -0.58452       0.18740       0.45057
                        -----------------------------------------
Magnitude (a.u.)       :      0.76144
Magnitude (Debye)      :      1.93542

                             ****ORCA TERMINATED NORMALLY****
TOTAL RUN TIME: 0 days 0 hours 16 minutes 34 seconds 900 msec
