                         Program Version 3.0.3 - RELEASE   -
|  1> ! RI-MP2 RIJK def2-TZVP def2-TZVP/C def2-TZVP/JK TIGHTSCF
|  2> % maxcore 2000
|  3> % mp2 density relaxed end
|  4> *xyz 0 1
|  5>  O        0.4157268689     0.9436671692     0.8207776025
|  6>  C       -0.0625629229    -0.2223525020     0.2019369191
|  7>  C       -1.5046833948    -0.2184004530    -0.2808050627
|  8>  C       -1.8253726305     0.5453787130    -1.5580933984
|  9>  C       -1.4957727091    -0.9202325770    -1.6011690058
| 10>  O       -0.1837730909    -1.3099440904    -1.9513896554
| 11>  C        0.7413987035    -0.6504820065    -1.0886093010
| 12>  C        1.3810851503     0.4983248867    -1.7389413111
| 13>  C        1.9119851352     1.4474353135    -2.2537860323
| 14>  H        0.5106337770     1.6229454323     0.1411640556
| 15>  H        0.0500043076    -1.0109949174     0.9521233449
| 16>  H       -2.2839433596    -0.3753009790     0.4548931155
| 17>  H       -2.8632453381     0.8243778840    -1.7052398348
| 18>  H       -1.1075961454     1.2520381113    -1.9582956092
| 19>  H       -2.2243212627    -1.6593826433    -1.9107944052
| 20>  H        1.5186881425    -1.3786851182    -0.8345085031
| 21>  H        2.3925927291     2.2681883268    -2.7274963784
| 22> *
| 23>
| 24>                          ****END OF INPUT****

CARTESIAN COORDINATES (ANGSTROEM)
---------------------------------
  O      0.415727    0.943667    0.820778
  C     -0.062563   -0.222353    0.201937
  C     -1.504683   -0.218400   -0.280805
  C     -1.825373    0.545379   -1.558093
  C     -1.495773   -0.920233   -1.601169
  O     -0.183773   -1.309944   -1.951390
  C      0.741399   -0.650482   -1.088609
  C      1.381085    0.498325   -1.738941
  C      1.911985    1.447435   -2.253786
  H      0.510634    1.622945    0.141164
  H      0.050004   -1.010995    0.952123
  H     -2.283943   -0.375301    0.454893
  H     -2.863245    0.824378   -1.705240
  H     -1.107596    1.252038   -1.958296
  H     -2.224321   -1.659383   -1.910794
  H      1.518688   -1.378685   -0.834509
  H      2.392593    2.268188   -2.727496

 Total Charge           Charge          ....    0
 Multiplicity           Mult            ....    1
 Number of Electrons    NEL             ....   66
 Basis Dimension        Dim             ....  327

ORBITAL ENERGIES
----------------

  NO   OCC          E(Eh)            E(eV)
   0   2.0000     -20.573900      -559.8443
   1   2.0000     -20.561955      -559.5192
   2   2.0000     -11.317754      -307.9717
   3   2.0000     -11.301137      -307.5196
   4   2.0000     -11.292546      -307.2858
   5   2.0000     -11.246109      -306.0222
   6   2.0000     -11.239453      -305.8411
   7   2.0000     -11.238939      -305.8271
   8   2.0000     -11.235530      -305.7343
   9   2.0000      -1.405159       -38.2363
  10   2.0000      -1.370586       -37.2955
  11   2.0000      -1.144042       -31.1310
  12   2.0000      -1.069537       -29.1036
  13   2.0000      -1.002083       -27.2681
  14   2.0000      -0.905752       -24.6468
  15   2.0000      -0.814765       -22.1709
  16   2.0000      -0.799863       -21.7654
  17   2.0000      -0.742514       -20.2048
  18   2.0000      -0.738699       -20.1010
  19   2.0000      -0.687021       -18.6948
  20   2.0000      -0.677943       -18.4478
  21   2.0000      -0.615847       -16.7581
  22   2.0000      -0.608580       -16.5603
  23   2.0000      -0.598777       -16.2936
  24   2.0000      -0.584602       -15.9078
  25   2.0000      -0.547184       -14.8896
  26   2.0000      -0.530679       -14.4405
  27   2.0000      -0.492690       -13.4068
  28   2.0000      -0.459614       -12.5067
  29   2.0000      -0.425641       -11.5823
  30   2.0000      -0.411095       -11.1865
  31   2.0000      -0.396957       -10.8018
  32   2.0000      -0.390678       -10.6309
  33   0.0000       0.137303         3.7362
  34   0.0000       0.146420         3.9843
  35   0.0000       0.158943         4.3251
  36   0.0000       0.160695         4.3727
  37   0.0000       0.167224         4.5504

MULLIKEN ATOMIC CHARGES
-----------------------
   0 O :   -0.442058
   1 C :    0.000655
   2 C :   -0.112107
   3 C :   -0.314364
   4 C :    0.029783
   5 O :   -0.301724
   6 C :    0.138136
   7 C :   -0.149264
   8 C :   -0.161968
   9 H :    0.326410
  10 H :    0.108584
  11 H :    0.133105
  12 H :    0.134463
  13 H :    0.155579
  14 H :    0.128799
  15 H :    0.130189
  16 H :    0.195781
Sum of atomic charges:   -0.0000000

LOEWDIN ATOMIC CHARGES
----------------------
   0 O :    0.007267
   1 C :   -0.294352
   2 C :   -0.193667
   3 C :   -0.203810
   4 C :   -0.265713
   5 O :    0.211255
   6 C :   -0.264518
   7 C :   -0.098665
   8 C :   -0.088664
   9 H :    0.180521
  10 H :    0.152481
  11 H :    0.147241
  12 H :    0.138267
  13 H :    0.141294
  14 H :    0.138835
  15 H :    0.162423
  16 H :    0.129805

  Mayer bond orders larger than 0.1
B(  0-O ,  1-C ) :   1.0270 B(  0-O ,  9-H ) :   0.8236 B(  1-C ,  2-C ) :   0.9435
B(  1-C ,  6-C ) :   0.8967 B(  1-C , 10-H ) :   0.9241 B(  2-C ,  3-C ) :   0.8327
B(  2-C ,  4-C ) :   0.8959 B(  2-C , 11-H ) :   0.9297 B(  3-C ,  4-C ) :   0.8699
B(  3-C , 12-H ) :   0.9204 B(  3-C , 13-H ) :   0.9185 B(  4-C ,  5-O ) :   0.9722
B(  4-C , 14-H ) :   0.9389 B(  5-O ,  6-C ) :   0.8896 B(  6-C ,  7-C ) :   1.0768
B(  6-C , 15-H ) :   0.9103 B(  7-C ,  8-C ) :   2.5885 B(  8-C , 16-H ) :   0.8991

MP2 TOTAL ENERGY:     -421.056971384 Eh
FINAL SINGLE POINT ENERGY      -421.056971383774

DIPOLE MOMENT
-------------
                                X             Y             Z
Electronic contribution:      2.77237      -1.12638      -0.64880
Nuclear contribution   :     -3.11355       1.35394       0.49172
                        -----------------------------------------
Total Dipole Moment    :     -0.34118       0.22756      -0.15708
                        -----------------------------------------
Magnitude (a.u.)       :      0.43916
Magnitude (Debye)      :      1.11625

                             ****ORCA TERMINATED NORMALLY****
TOTAL RUN TIME: 0 days 0 hours 17 minutes 42 seconds 189 msec
