                         Program Version 3.0.3 - RELEASE   -
|  1> ! RI-MP2 RIJK def2-TZVP def2-TZVP/C def2-TZVP/JK TIGHTSCF
|  2> % maxcore 2000
|  3> % mp2 density relaxed end
|  4> *xyz 0 1
|  5>  O       -0.0322059394     1.2490617690     0.0101547552
|  6>  C        0.0415009428    -0.0797944581     0.0022091810
|  7>  N        1.1389726424    -0.7898484673    -0.0088298313
|  8>  N        0.6350026126    -2.0708172835    -0.0126602494
|  9>  N        1.1700891342    -3.3101762364    -0.0231602983
| 10>  C        0.0551108906    -4.0454918822    -0.0199819412
| 11>  N       -1.1445720169    -3.3760111308    -0.0085741390
| 12>  C       -0.7073176409    -2.1331972657    -0.0043613393
| 13>  N       -1.1200904901    -0.8162053926     0.0054646962
| 14>  H        0.8719675890     1.5916102684     0.0060416379
| 15>  H        0.1069998420    -5.1235244347    -0.0263606474
| 16>  H       -2.0581723163    -0.4560380262     0.0140928257
| 17> *
| 18>
| 19>                          ****END OF INPUT****

CARTESIAN COORDINATES (ANGSTROEM)
---------------------------------
  O     -0.032206    1.249062    0.010155
  C      0.041501   -0.079794    0.002209
  N      1.138973   -0.789848   -0.008830
  N      0.635003   -2.070817   -0.012660
  N      1.170089   -3.310176   -0.023160
  C      0.055111   -4.045492   -0.019982
  N     -1.144572   -3.376011   -0.008574
  C     -0.707318   -2.133197   -0.004361
  N     -1.120090   -0.816205    0.005465
  H      0.871968    1.591610    0.006042
  H      0.107000   -5.123524   -0.026361
  H     -2.058172   -0.456038    0.014093

 Total Charge           Charge          ....    0
 Multiplicity           Mult            ....    1
 Number of Electrons    NEL             ....   64
 Basis Dimension        Dim             ....  297

ORBITAL ENERGIES
----------------

  NO   OCC          E(Eh)            E(eV)
   0   2.0000     -20.652903      -561.9941
   1   2.0000     -15.679096      -426.6499
   2   2.0000     -15.660160      -426.1346
   3   2.0000     -15.617926      -424.9854
   4   2.0000     -15.595070      -424.3634
   5   2.0000     -15.562096      -423.4662
   6   2.0000     -11.416751      -310.6656
   7   2.0000     -11.357625      -309.0567
   8   2.0000     -11.294522      -307.3396
   9   2.0000      -1.503523       -40.9129
  10   2.0000      -1.458969       -39.7006
  11   2.0000      -1.331815       -36.2405
  12   2.0000      -1.268357       -34.5138
  13   2.0000      -1.167268       -31.7630
  14   2.0000      -1.068712       -29.0811
  15   2.0000      -0.903006       -24.5720
  16   2.0000      -0.891050       -24.2467
  17   2.0000      -0.846410       -23.0320
  18   2.0000      -0.762004       -20.7352
  19   2.0000      -0.759713       -20.6728
  20   2.0000      -0.722458       -19.6591
  21   2.0000      -0.700229       -19.0542
  22   2.0000      -0.641882       -17.4665
  23   2.0000      -0.638016       -17.3613
  24   2.0000      -0.599561       -16.3149
  25   2.0000      -0.551332       -15.0025
  26   2.0000      -0.539447       -14.6791
  27   2.0000      -0.500273       -13.6131
  28   2.0000      -0.482657       -13.1338
  29   2.0000      -0.457970       -12.4620
  30   2.0000      -0.371598       -10.1117
  31   2.0000      -0.343810        -9.3555
  32   0.0000       0.112366         3.0576
  33   0.0000       0.130604         3.5539
  34   0.0000       0.166248         4.5238
  35   0.0000       0.182836         4.9752
  36   0.0000       0.185225         5.0402

MULLIKEN ATOMIC CHARGES
-----------------------
   0 O :   -0.407316
   1 C :    0.361531
   2 N :   -0.276683
   3 N :    0.222568
   4 N :   -0.296572
   5 C :    0.040180
   6 N :   -0.308646
   7 C :    0.208013
   8 N :   -0.335349
   9 H :    0.367355
  10 H :    0.144302
  11 H :    0.280617
Sum of atomic charges:   -0.0000000

LOEWDIN ATOMIC CHARGES
----------------------
   0 O :    0.108053
   1 C :   -0.471097
   2 N :    0.048999
   3 N :    0.171817
   4 N :    0.031199
   5 C :   -0.331283
   6 N :    0.074221
   7 C :   -0.386132
   8 N :    0.196678
   9 H :    0.218683
  10 H :    0.131457
  11 H :    0.207406

  Mayer bond orders larger than 0.1
B(  0-O ,  1-C ) :   1.1462 B(  0-O ,  9-H ) :   0.8038 B(  1-C ,  2-N ) :   1.6084
B(  1-C ,  8-N ) :   1.1366 B(  2-N ,  3-N ) :   0.9214 B(  3-N ,  4-N ) :   0.9934
B(  3-N ,  7-C ) :   1.2086 B(  4-N ,  5-C ) :   1.4719 B(  5-C ,  6-N ) :   1.2808
B(  5-C , 10-H ) :   0.9351 B(  6-N ,  7-C ) :   1.5564 B(  7-C ,  8-N ) :   1.0544
B(  8-N , 11-H ) :   0.8517

MP2 TOTAL ENERGY:     -464.249907169 Eh
FINAL SINGLE POINT ENERGY      -464.249907169434

DIPOLE MOMENT
-------------
                                X             Y             Z
Electronic contribution:      0.36353       0.69069       0.00150
Nuclear contribution   :     -1.02242       0.88726       0.01183
                        -----------------------------------------
Total Dipole Moment    :     -0.65889       1.57796       0.01333
                        -----------------------------------------
Magnitude (a.u.)       :      1.71005
Magnitude (Debye)      :      4.34660

                             ****ORCA TERMINATED NORMALLY****
TOTAL RUN TIME: 0 days 0 hours 14 minutes 2 seconds 956 msec
