                         Program Version 3.0.3 - RELEASE   -
|  1> ! RI-MP2 RIJK def2-TZVP def2-TZVP/C def2-TZVP/JK TIGHTSCF
|  2> % maxcore 2000
|  3> % mp2 density relaxed end
|  4> *xyz 0 1
|  5>  C       -0.1035350108     1.5620200860    -0.0139758144
|  6>  C        0.0462927662     0.0638469543     0.1226896958
|  7>  N        1.2441297748    -0.7203594610    -0.2823067455
|  8>  C        2.4578582238     0.1038265822     0.1134963698
|  9>  C        2.0397015367     0.0859114093     1.6145883807
| 10>  C        0.7825527868    -0.6677922668     1.1773653076
| 11>  C        0.2365923743    -1.8658370676     1.8974242567
| 12>  C        3.7013889449    -0.5750089721    -0.1956437142
| 13>  C        4.7433276072    -1.1263673056    -0.4305434466
| 14>  H        0.6865519748     2.1301459467     0.4820475364
| 15>  H       -0.1201136853     1.8546028553    -1.0697338249
| 16>  H       -1.0549514036     1.8738415946     0.4293493956
| 17>  H       -0.8366708600    -0.4708689640    -0.2251730811
| 18>  H        2.4621374869     1.0932912341    -0.3557482028
| 19>  H        2.7110507994    -0.5319883817     2.2120811408
| 20>  H        1.9054276624     1.0500009162     2.1138531756
| 21>  H       -0.2607941930    -1.5667064765     2.8281087267
| 22>  H       -0.4945128596    -2.3923321610     1.2771871010
| 23>  H        1.0350246210    -2.5704510845     2.1535328475
| 24>  H        5.6595343332    -1.6160503479    -0.6498971145
| 25> *
| 26>
| 27>                          ****END OF INPUT****

CARTESIAN COORDINATES (ANGSTROEM)
---------------------------------
  C     -0.103535    1.562020   -0.013976
  C      0.046293    0.063847    0.122690
  N      1.244130   -0.720359   -0.282307
  C      2.457858    0.103827    0.113496
  C      2.039702    0.085911    1.614588
  C      0.782553   -0.667792    1.177365
  C      0.236592   -1.865837    1.897424
  C      3.701389   -0.575009   -0.195644
  C      4.743328   -1.126367   -0.430543
  H      0.686552    2.130146    0.482048
  H     -0.120114    1.854603   -1.069734
  H     -1.054951    1.873842    0.429349
  H     -0.836671   -0.470869   -0.225173
  H      2.462137    1.093291   -0.355748
  H      2.711051   -0.531988    2.212081
  H      1.905428    1.050001    2.113853
  H     -0.260794   -1.566706    2.828109
  H     -0.494513   -2.392332    1.277187
  H      1.035025   -2.570451    2.153533
  H      5.659534   -1.616050   -0.649897

 Total Charge           Charge          ....    0
 Multiplicity           Mult            ....    1
 Number of Electrons    NEL             ....   66
 Basis Dimension        Dim             ....  345

ORBITAL ENERGIES
----------------

  NO   OCC          E(Eh)            E(eV)
   0   2.0000     -15.559169      -423.3865
   1   2.0000     -11.283541      -307.0408
   2   2.0000     -11.268746      -306.6382
   3   2.0000     -11.262792      -306.4762
   4   2.0000     -11.238079      -305.8037
   5   2.0000     -11.228784      -305.5508
   6   2.0000     -11.228702      -305.5485
   7   2.0000     -11.223022      -305.3939
   8   2.0000     -11.219467      -305.2972
   9   2.0000      -1.290928       -35.1279
  10   2.0000      -1.065297       -28.9882
  11   2.0000      -1.012150       -27.5420
  12   2.0000      -0.996612       -27.1192
  13   2.0000      -0.977707       -26.6048
  14   2.0000      -0.900531       -24.5047
  15   2.0000      -0.799062       -21.7436
  16   2.0000      -0.733245       -19.9526
  17   2.0000      -0.716646       -19.5009
  18   2.0000      -0.681651       -18.5487
  19   2.0000      -0.640494       -17.4287
  20   2.0000      -0.610914       -16.6238
  21   2.0000      -0.594869       -16.1872
  22   2.0000      -0.584782       -15.9127
  23   2.0000      -0.564706       -15.3664
  24   2.0000      -0.550703       -14.9854
  25   2.0000      -0.540712       -14.7135
  26   2.0000      -0.523297       -14.2396
  27   2.0000      -0.483859       -13.1665
  28   2.0000      -0.454604       -12.3704
  29   2.0000      -0.422401       -11.4941
  30   2.0000      -0.384273       -10.4566
  31   2.0000      -0.382456       -10.4072
  32   2.0000      -0.361087        -9.8257
  33   0.0000       0.132356         3.6016
  34   0.0000       0.149116         4.0577
  35   0.0000       0.167180         4.5492
  36   0.0000       0.168075         4.5736
  37   0.0000       0.174266         4.7420

MULLIKEN ATOMIC CHARGES
-----------------------
   0 C :   -0.405586
   1 C :   -0.051653
   2 N :   -0.223788
   3 C :   -0.192978
   4 C :   -0.230844
   5 C :    0.129172
   6 C :   -0.414959
   7 C :   -0.037422
   8 C :   -0.089037
   9 H :    0.138607
  10 H :    0.144776
  11 H :    0.140021
  12 H :    0.113987
  13 H :    0.120586
  14 H :    0.135212
  15 H :    0.127076
  16 H :    0.132440
  17 H :    0.138733
  18 H :    0.134616
  19 H :    0.191042
Sum of atomic charges:    0.0000000

LOEWDIN ATOMIC CHARGES
----------------------
   0 C :   -0.295351
   1 C :   -0.249908
   2 N :    0.154906
   3 C :   -0.233194
   4 C :   -0.170538
   5 C :   -0.254008
   6 C :   -0.270888
   7 C :   -0.086404
   8 C :   -0.090132
   9 H :    0.125973
  10 H :    0.130868
  11 H :    0.132142
  12 H :    0.153728
  13 H :    0.155516
  14 H :    0.146214
  15 H :    0.130034
  16 H :    0.130708
  17 H :    0.133390
  18 H :    0.130122
  19 H :    0.126823

  Mayer bond orders larger than 0.1
B(  0-C ,  1-C ) :   0.8742 B(  0-C ,  9-H ) :   0.9388 B(  0-C , 10-H ) :   0.9380
B(  0-C , 11-H ) :   0.9267 B(  1-C ,  2-N ) :   0.9178 B(  1-C ,  5-C ) :   0.9639
B(  1-C , 12-H ) :   0.9171 B(  2-N ,  3-C ) :   0.9828 B(  2-N ,  5-C ) :   0.8028
B(  3-C ,  4-C ) :   0.9021 B(  3-C ,  7-C ) :   1.2506 B(  3-C ,  8-C ) :  -0.1487
B(  3-C , 13-H ) :   0.9156 B(  4-C ,  5-C ) :   0.8990 B(  4-C , 14-H ) :   0.9224
B(  4-C , 15-H ) :   0.9154 B(  5-C ,  6-C ) :   0.8649 B(  6-C , 16-H ) :   0.9334
B(  6-C , 17-H ) :   0.9386 B(  6-C , 18-H ) :   0.9382 B(  7-C ,  8-C ) :   2.5621
B(  8-C , 19-H ) :   0.8875

MP2 TOTAL ENERGY:     -365.268824932 Eh
FINAL SINGLE POINT ENERGY      -365.268824932169

DIPOLE MOMENT
-------------
                                X             Y             Z
Electronic contribution:      5.43627      -1.86544      -3.17602
Nuclear contribution   :     -5.74200       2.35462       3.78700
                        -----------------------------------------
Total Dipole Moment    :     -0.30573       0.48917       0.61098
                        -----------------------------------------
Magnitude (a.u.)       :      0.84027
Magnitude (Debye)      :      2.13580

                             ****ORCA TERMINATED NORMALLY****
TOTAL RUN TIME: 0 days 0 hours 20 minutes 5 seconds 447 msec
