                         Program Version 3.0.3 - RELEASE   -
|  1> ! RI-MP2 RIJK def2-TZVP def2-TZVP/C def2-TZVP/JK TIGHTSCF
|  2> % maxcore 2000
|  3> % mp2 density relaxed end
|  4> *xyz 0 1
|  5>  O       -0.1823464383     1.4143113726     0.3023518994
|  6>  C       -0.0196299638     0.0364872208     0.0510941790
|  7>  C        0.6993110942    -0.6476525631     1.2422984590
|  8>  C       -0.4375560419    -0.8489917328     2.2534345802
|  9>  C       -1.5984297449    -1.3639056577     1.3824497721
| 10>  C       -1.4066954323    -0.6807732808     0.0003019990
| 11>  C        0.7524388907    -0.1489039092    -1.2345904381
| 12>  O        1.1674816787     0.7819310564    -1.8826222835
| 13>  H        0.3005085745     1.8663758237    -0.4078709086
| 14>  H        1.1037062910    -1.6208208796     0.9322319657
| 15>  H        1.5241782252    -0.0297363226     1.6036616408
| 16>  H       -0.1737521643    -1.5327211522     3.0647446009
| 17>  H       -0.6932544600     0.1182708770     2.6978659233
| 18>  H       -1.5318304631    -2.4521189131     1.2769312207
| 19>  H       -2.5777107306    -1.1458385633     1.8157305457
| 20>  H       -2.1585520543     0.0833453018    -0.2042715566
| 21>  H       -1.4525819502    -1.4134313259    -0.8125486935
| 22>  H        0.9241319395    -1.1996720621    -1.5492223756
| 23> *
| 24>
| 25>                          ****END OF INPUT****

CARTESIAN COORDINATES (ANGSTROEM)
---------------------------------
  O     -0.182346    1.414311    0.302352
  C     -0.019630    0.036487    0.051094
  C      0.699311   -0.647653    1.242298
  C     -0.437556   -0.848992    2.253435
  C     -1.598430   -1.363906    1.382450
  C     -1.406695   -0.680773    0.000302
  C      0.752439   -0.148904   -1.234590
  O      1.167482    0.781931   -1.882622
  H      0.300509    1.866376   -0.407871
  H      1.103706   -1.620821    0.932232
  H      1.524178   -0.029736    1.603662
  H     -0.173752   -1.532721    3.064745
  H     -0.693254    0.118271    2.697866
  H     -1.531830   -2.452119    1.276931
  H     -2.577711   -1.145839    1.815731
  H     -2.158552    0.083345   -0.204272
  H     -1.452582   -1.413431   -0.812549
  H      0.924132   -1.199672   -1.549222

 Total Charge           Charge          ....    0
 Multiplicity           Mult            ....    1
 Number of Electrons    NEL             ....   62
 Basis Dimension        Dim             ....  308

ORBITAL ENERGIES
----------------

  NO   OCC          E(Eh)            E(eV)
   0   2.0000     -20.574252      -559.8538
   1   2.0000     -20.553765      -559.2964
   2   2.0000     -11.342678      -308.6500
   3   2.0000     -11.298673      -307.4525
   4   2.0000     -11.234467      -305.7054
   5   2.0000     -11.234122      -305.6960
   6   2.0000     -11.229058      -305.5582
   7   2.0000     -11.226156      -305.4792
   8   2.0000      -1.420466       -38.6529
   9   2.0000      -1.362158       -37.0662
  10   2.0000      -1.126172       -30.6447
  11   2.0000      -0.992420       -27.0051
  12   2.0000      -0.978474       -26.6256
  13   2.0000      -0.856326       -23.3018
  14   2.0000      -0.797480       -21.7005
  15   2.0000      -0.771893       -21.0043
  16   2.0000      -0.730556       -19.8794
  17   2.0000      -0.679337       -18.4857
  18   2.0000      -0.651238       -17.7211
  19   2.0000      -0.638336       -17.3700
  20   2.0000      -0.611557       -16.6413
  21   2.0000      -0.566979       -15.4283
  22   2.0000      -0.557565       -15.1721
  23   2.0000      -0.527957       -14.3665
  24   2.0000      -0.521546       -14.1920
  25   2.0000      -0.514743       -14.0069
  26   2.0000      -0.490692       -13.3524
  27   2.0000      -0.484311       -13.1788
  28   2.0000      -0.471210       -12.8223
  29   2.0000      -0.433685       -11.8012
  30   2.0000      -0.429448       -11.6859
  31   0.0000       0.119849         3.2613
  32   0.0000       0.127681         3.4744
  33   0.0000       0.158760         4.3201
  34   0.0000       0.169645         4.6163
  35   0.0000       0.176593         4.8053

MULLIKEN ATOMIC CHARGES
-----------------------
   0 O :   -0.476056
   1 C :    0.232245
   2 C :   -0.246708
   3 C :   -0.207804
   4 C :   -0.235599
   5 C :   -0.261075
   6 C :    0.083809
   7 O :   -0.293150
   8 H :    0.330045
   9 H :    0.110087
  10 H :    0.125495
  11 H :    0.125518
  12 H :    0.125948
  13 H :    0.112106
  14 H :    0.126058
  15 H :    0.127865
  16 H :    0.123697
  17 H :    0.097518
Sum of atomic charges:    0.0000000

LOEWDIN ATOMIC CHARGES
----------------------
   0 O :    0.017730
   1 C :   -0.383005
   2 C :   -0.212370
   3 C :   -0.255614
   4 C :   -0.251655
   5 C :   -0.201634
   6 C :   -0.257796
   7 O :    0.127316
   8 H :    0.181815
   9 H :    0.141807
  10 H :    0.141108
  11 H :    0.132765
  12 H :    0.143801
  13 H :    0.134546
  14 H :    0.135231
  15 H :    0.145791
  16 H :    0.137912
  17 H :    0.122252

  Mayer bond orders larger than 0.1
B(  0-O ,  1-C ) :   1.1686 B(  0-O ,  5-C ) :  -0.1177 B(  0-O ,  8-H ) :   0.8017
B(  1-C ,  2-C ) :   0.8984 B(  1-C ,  5-C ) :   0.8466 B(  1-C ,  6-C ) :   0.8460
B(  2-C ,  3-C ) :   0.9254 B(  2-C ,  9-H ) :   0.9186 B(  2-C , 10-H ) :   0.9134
B(  3-C ,  4-C ) :   0.9438 B(  3-C , 11-H ) :   0.9281 B(  3-C , 12-H ) :   0.9251
B(  4-C ,  5-C ) :   0.9272 B(  4-C , 13-H ) :   0.9344 B(  4-C , 14-H ) :   0.9263
B(  5-C , 15-H ) :   0.9141 B(  5-C , 16-H ) :   0.9199 B(  6-C ,  7-O ) :   1.9109
B(  6-C , 17-H ) :   0.9269

MP2 TOTAL ENERGY:     -384.338592227 Eh
FINAL SINGLE POINT ENERGY      -384.338592226756

DIPOLE MOMENT
-------------
                                X             Y             Z
Electronic contribution:      3.20825       4.56975      -5.34077
Nuclear contribution   :     -3.34272      -5.51079       5.59929
                        -----------------------------------------
Total Dipole Moment    :     -0.13448      -0.94104       0.25852
                        -----------------------------------------
Magnitude (a.u.)       :      0.98513
Magnitude (Debye)      :      2.50400

                             ****ORCA TERMINATED NORMALLY****
TOTAL RUN TIME: 0 days 0 hours 13 minutes 5 seconds 223 msec
