                         Program Version 3.0.3 - RELEASE   -
|  1> ! RI-MP2 RIJK def2-TZVP def2-TZVP/C def2-TZVP/JK TIGHTSCF
|  2> % maxcore 2000
|  3> % mp2 density relaxed end
|  4> *xyz 0 1
|  5>  O        0.3288161498     1.0920883352    -0.6934370575
|  6>  C        0.0479409205    -0.0539912269     0.0528240571
|  7>  C        0.2492091566     0.0140577040     1.5766015797
|  8>  C       -0.6506189406    -1.0971904748     2.0956778954
|  9>  O       -0.6363962458    -1.6675185529     3.1415007640
| 10>  O       -1.5760409407    -1.4161481746     1.1191185827
| 11>  C       -1.4178398814    -0.5567666531    -0.0190927037
| 12>  C       -2.4872902827     0.5275292863     0.0925427777
| 13>  O       -2.3154604677     1.7003527158    -0.1393175188
| 14>  H       -0.3928051190     1.7217498301    -0.5468659638
| 15>  H        0.6884353304    -0.8479157277    -0.3473900915
| 16>  H        1.2758443186    -0.1290505379     1.9127548951
| 17>  H       -0.1077840987     0.9730595436     1.9713762828
| 18>  H       -1.6213665327    -1.1453629923    -0.9211857746
| 19>  H       -3.4688211168     0.1446263053     0.4408125254
| 20> *
| 21>
| 22>                          ****END OF INPUT****

CARTESIAN COORDINATES (ANGSTROEM)
---------------------------------
  O      0.328816    1.092088   -0.693437
  C      0.047941   -0.053991    0.052824
  C      0.249209    0.014058    1.576602
  C     -0.650619   -1.097190    2.095678
  O     -0.636396   -1.667519    3.141501
  O     -1.576041   -1.416148    1.119119
  C     -1.417840   -0.556767   -0.019093
  C     -2.487290    0.527529    0.092543
  O     -2.315460    1.700353   -0.139318
  H     -0.392805    1.721750   -0.546866
  H      0.688435   -0.847916   -0.347390
  H      1.275844   -0.129051    1.912755
  H     -0.107784    0.973060    1.971376
  H     -1.621367   -1.145363   -0.921186
  H     -3.468821    0.144626    0.440813

 Total Charge           Charge          ....    0
 Multiplicity           Mult            ....    1
 Number of Electrons    NEL             ....   68
 Basis Dimension        Dim             ....  315

ORBITAL ENERGIES
----------------

  NO   OCC          E(Eh)            E(eV)
   0   2.0000     -20.628799      -561.3382
   1   2.0000     -20.604710      -560.6827
   2   2.0000     -20.577040      -559.9297
   3   2.0000     -20.563601      -559.5640
   4   2.0000     -11.400755      -310.2303
   5   2.0000     -11.374267      -309.5096
   6   2.0000     -11.337771      -308.5164
   7   2.0000     -11.325787      -308.1903
   8   2.0000     -11.269103      -306.6479
   9   2.0000      -1.483227       -40.3607
  10   2.0000      -1.443713       -39.2854
  11   2.0000      -1.395380       -37.9702
  12   2.0000      -1.386973       -37.7414
  13   2.0000      -1.094346       -29.7787
  14   2.0000      -1.040902       -28.3244
  15   2.0000      -0.904034       -24.6000
  16   2.0000      -0.836532       -22.7632
  17   2.0000      -0.811364       -22.0783
  18   2.0000      -0.745606       -20.2890
  19   2.0000      -0.725908       -19.7530
  20   2.0000      -0.701370       -19.0852
  21   2.0000      -0.688441       -18.7334
  22   2.0000      -0.657915       -17.9028
  23   2.0000      -0.655332       -17.8325
  24   2.0000      -0.622382       -16.9359
  25   2.0000      -0.611430       -16.6378
  26   2.0000      -0.590381       -16.0651
  27   2.0000      -0.568396       -15.4668
  28   2.0000      -0.557630       -15.1739
  29   2.0000      -0.532024       -14.4771
  30   2.0000      -0.497115       -13.5272
  31   2.0000      -0.488250       -13.2860
  32   2.0000      -0.447214       -12.1693
  33   2.0000      -0.443007       -12.0548
  34   0.0000       0.087552         2.3824
  35   0.0000       0.129723         3.5299
  36   0.0000       0.142906         3.8887
  37   0.0000       0.152328         4.1451
  38   0.0000       0.163174         4.4402

MULLIKEN ATOMIC CHARGES
-----------------------
   0 O :   -0.458113
   1 C :    0.015420
   2 C :   -0.234647
   3 C :    0.231296
   4 O :   -0.256089
   5 O :   -0.236978
   6 C :    0.101964
   7 C :    0.083030
   8 O :   -0.291097
   9 H :    0.341719
  10 H :    0.119943
  11 H :    0.159083
  12 H :    0.150632
  13 H :    0.145521
  14 H :    0.128316
Sum of atomic charges:   -0.0000000

LOEWDIN ATOMIC CHARGES
----------------------
   0 O :    0.006316
   1 C :   -0.332412
   2 C :   -0.205399
   3 C :   -0.445747
   4 O :    0.161450
   5 O :    0.264799
   6 C :   -0.270438
   7 C :   -0.251683
   8 O :    0.137956
   9 H :    0.176304
  10 H :    0.154313
  11 H :    0.154897
  12 H :    0.161575
  13 H :    0.159771
  14 H :    0.128297

  Mayer bond orders larger than 0.1
B(  0-O ,  1-C ) :   1.0088 B(  0-O ,  9-H ) :   0.8006 B(  1-C ,  2-C ) :   0.9044
B(  1-C ,  6-C ) :   0.8966 B(  1-C , 10-H ) :   0.9231 B(  2-C ,  3-C ) :   0.9245
B(  2-C , 11-H ) :   0.9149 B(  2-C , 12-H ) :   0.8991 B(  3-C ,  4-O ) :   2.0550
B(  3-C ,  5-O ) :   1.0512 B(  5-O ,  6-C ) :   0.8604 B(  6-C ,  7-C ) :   0.8769
B(  6-C , 13-H ) :   0.8917 B(  7-C ,  8-O ) :   1.8879 B(  7-C , 14-H ) :   0.9315

MP2 TOTAL ENERGY:     -494.179576512 Eh
FINAL SINGLE POINT ENERGY      -494.179576512066

DIPOLE MOMENT
-------------
                                X             Y             Z
Electronic contribution:     -2.06768      -1.32698       1.43402
Nuclear contribution   :      1.86913       1.45309      -2.09818
                        -----------------------------------------
Total Dipole Moment    :     -0.19855       0.12611      -0.66416
                        -----------------------------------------
Magnitude (a.u.)       :      0.70458
Magnitude (Debye)      :      1.79090

                             ****ORCA TERMINATED NORMALLY****
TOTAL RUN TIME: 0 days 0 hours 14 minutes 38 seconds 881 msec
