                         Program Version 3.0.3 - RELEASE   -
|  1> ! RI-MP2 RIJK def2-TZVP def2-TZVP/C def2-TZVP/JK TIGHTSCF
|  2> % maxcore 2000
|  3> % mp2 density relaxed end
|  4> *xyz 0 1
|  5>  O       -0.0512550687    -0.0040919383    -0.0737740450
|  6>  C       -0.1042358403     1.2084542007    -0.0218583756
|  7>  C       -1.2384584819     2.1131344777     0.0695817258
|  8>  C       -0.7524723462     3.3818256060     0.0635849323
|  9>  N        0.6065335510     3.4501088094    -0.1009467701
| 10>  C        1.1547674737     2.1096081501    -0.0508285314
| 11>  C        2.2461532351     1.7992251074     1.0077087340
| 12>  O        3.2328565472     1.5439408173    -0.0038568635
| 13>  C        2.2650250975     1.7268723386    -1.0563107765
| 14>  H       -2.2744464493     1.8179140792     0.1131559353
| 15>  H       -1.3144258638     4.3046724673     0.1439002406
| 16>  H        1.1299043073     4.2370029654     0.2490610497
| 17>  H        2.5175295255     2.6393266435     1.6604952394
| 18>  H        2.0316234081     0.9102607516     1.6119690479
| 19>  H        2.0587281584     0.7929220844    -1.5907653592
| 20>  H        2.5501699563     2.5183521796    -1.7582288038
| 21> *
| 22>
| 23>                          ****END OF INPUT****

CARTESIAN COORDINATES (ANGSTROEM)
---------------------------------
  O     -0.051255   -0.004092   -0.073774
  C     -0.104236    1.208454   -0.021858
  C     -1.238458    2.113134    0.069582
  C     -0.752472    3.381826    0.063585
  N      0.606534    3.450109   -0.100947
  C      1.154767    2.109608   -0.050829
  C      2.246153    1.799225    1.007709
  O      3.232857    1.543941   -0.003857
  C      2.265025    1.726872   -1.056311
  H     -2.274446    1.817914    0.113156
  H     -1.314426    4.304672    0.143900
  H      1.129904    4.237003    0.249061
  H      2.517530    2.639327    1.660495
  H      2.031623    0.910261    1.611969
  H      2.058728    0.792922   -1.590765
  H      2.550170    2.518352   -1.758229

 Total Charge           Charge          ....    0
 Multiplicity           Mult            ....    1
 Number of Electrons    NEL             ....   66
 Basis Dimension        Dim             ....  321

ORBITAL ENERGIES
----------------

  NO   OCC          E(Eh)            E(eV)
   0   2.0000     -20.558545      -559.4265
   1   2.0000     -20.532053      -558.7056
   2   2.0000     -15.603529      -424.5936
   3   2.0000     -11.328674      -308.2689
   4   2.0000     -11.320137      -308.0366
   5   2.0000     -11.295554      -307.3677
   6   2.0000     -11.289701      -307.2084
   7   2.0000     -11.289099      -307.1920
   8   2.0000     -11.226883      -305.4990
   9   2.0000      -1.395377       -37.9701
  10   2.0000      -1.373648       -37.3789
  11   2.0000      -1.292926       -35.1823
  12   2.0000      -1.056313       -28.7437
  13   2.0000      -1.028379       -27.9836
  14   2.0000      -0.948883       -25.8204
  15   2.0000      -0.874762       -23.8035
  16   2.0000      -0.806606       -21.9489
  17   2.0000      -0.748682       -20.3727
  18   2.0000      -0.730052       -19.8657
  19   2.0000      -0.676511       -18.4088
  20   2.0000      -0.668008       -18.1774
  21   2.0000      -0.645447       -17.5635
  22   2.0000      -0.615860       -16.7584
  23   2.0000      -0.603599       -16.4248
  24   2.0000      -0.588088       -16.0027
  25   2.0000      -0.582163       -15.8415
  26   2.0000      -0.563268       -15.3273
  27   2.0000      -0.510187       -13.8829
  28   2.0000      -0.495314       -13.4782
  29   2.0000      -0.456201       -12.4139
  30   2.0000      -0.432189       -11.7605
  31   2.0000      -0.403931       -10.9915
  32   2.0000      -0.339007        -9.2248
  33   0.0000       0.091184         2.4813
  34   0.0000       0.119440         3.2501
  35   0.0000       0.157604         4.2886
  36   0.0000       0.168592         4.5876
  37   0.0000       0.181145         4.9292

MULLIKEN ATOMIC CHARGES
-----------------------
   0 O :   -0.321133
   1 C :    0.147831
   2 C :   -0.261601
   3 C :    0.012679
   4 N :   -0.339723
   5 C :    0.186645
   6 C :   -0.051079
   7 O :   -0.321504
   8 C :   -0.041125
   9 H :    0.149669
  10 H :    0.152698
  11 H :    0.247039
  12 H :    0.092763
  13 H :    0.122192
  14 H :    0.120853
  15 H :    0.103795
Sum of atomic charges:   -0.0000000

LOEWDIN ATOMIC CHARGES
----------------------
   0 O :    0.126199
   1 C :   -0.316265
   2 C :   -0.175943
   3 C :   -0.173657
   4 N :    0.127552
   5 C :   -0.235403
   6 C :   -0.224715
   7 O :    0.119108
   8 C :   -0.218568
   9 H :    0.145869
  10 H :    0.141796
  11 H :    0.185702
  12 H :    0.117364
  13 H :    0.130036
  14 H :    0.130088
  15 H :    0.120838

  Mayer bond orders larger than 0.1
B(  0-O ,  1-C ) :   1.9479 B(  1-C ,  2-C ) :   1.1181 B(  1-C ,  5-C ) :   0.8763
B(  2-C ,  3-C ) :   1.5252 B(  2-C ,  9-H ) :   0.9190 B(  3-C ,  4-N ) :   1.1708
B(  3-C , 10-H ) :   0.9106 B(  4-N ,  5-C ) :   0.8225 B(  4-N , 11-H ) :   0.8662
B(  5-C ,  6-C ) :   0.9508 B(  5-C ,  8-C ) :   0.9393 B(  6-C ,  7-O ) :   0.9783
B(  6-C , 12-H ) :   0.8974 B(  6-C , 13-H ) :   0.9050 B(  7-O ,  8-C ) :   0.9657
B(  8-C , 14-H ) :   0.9053 B(  8-C , 15-H ) :   0.9004

MP2 TOTAL ENERGY:     -437.158906717 Eh
FINAL SINGLE POINT ENERGY      -437.158906717247

DIPOLE MOMENT
-------------
                                X             Y             Z
Electronic contribution:     -0.94085      -1.72303      -0.25615
Nuclear contribution   :      0.58185       3.61183       0.51109
                        -----------------------------------------
Total Dipole Moment    :     -0.35900       1.88880       0.25494
                        -----------------------------------------
Magnitude (a.u.)       :      1.93944
Magnitude (Debye)      :      4.92967

                             ****ORCA TERMINATED NORMALLY****
TOTAL RUN TIME: 0 days 0 hours 17 minutes 50 seconds 64 msec
