                         Program Version 3.0.3 - RELEASE   -
|  1> ! RI-MP2 RIJK def2-TZVP def2-TZVP/C def2-TZVP/JK TIGHTSCF
|  2> % maxcore 2000
|  3> % mp2 density relaxed end
|  4> *xyz 0 1
|  5>  N       -0.0222753489     1.3459262638     0.1027741751
|  6>  C        0.0525838319    -0.0256852377     0.0460790254
|  7>  O        1.1211289639    -0.6132341079     0.0615764884
|  8>  C       -1.2524367049    -0.7257629987     0.0053539510
|  9>  C       -1.3639492455    -2.0612820279    -0.0345561421
| 10>  N       -2.6951418864    -2.5551627702    -0.0815623460
| 11>  C       -3.4117549605    -2.2954083158     1.1967639917
| 12>  C       -3.5358916100    -1.3358099254     0.0721016922
| 13>  C       -2.6390967135    -0.0987267372     0.0228744444
| 14>  H        0.8470171481     1.8454238153     0.0015215239
| 15>  H       -0.8679926173     1.8331267334    -0.1390873805
| 16>  H       -0.5436733819    -2.7669272361    -0.0394786814
| 17>  H       -4.2266931263    -2.9811712929     1.4069286415
| 18>  H       -2.8016769831    -2.0170203977     2.0516656951
| 19>  H       -4.4552869033    -1.3329973203    -0.5039647760
| 20>  H       -2.7904335911     0.5761113522     0.8747837177
| 21>  H       -2.8444483312     0.4833123530    -0.8859566802
| 22> *
| 23>
| 24>                          ****END OF INPUT****

CARTESIAN COORDINATES (ANGSTROEM)
---------------------------------
  N     -0.022275    1.345926    0.102774
  C      0.052584   -0.025685    0.046079
  O      1.121129   -0.613234    0.061576
  C     -1.252437   -0.725763    0.005354
  C     -1.363949   -2.061282   -0.034556
  N     -2.695142   -2.555163   -0.081562
  C     -3.411755   -2.295408    1.196764
  C     -3.535892   -1.335810    0.072102
  C     -2.639097   -0.098727    0.022874
  H      0.847017    1.845424    0.001522
  H     -0.867993    1.833127   -0.139087
  H     -0.543673   -2.766927   -0.039479
  H     -4.226693   -2.981171    1.406929
  H     -2.801677   -2.017020    2.051666
  H     -4.455287   -1.332997   -0.503965
  H     -2.790434    0.576111    0.874784
  H     -2.844448    0.483312   -0.885957

 Total Charge           Charge          ....    0
 Multiplicity           Mult            ....    1
 Number of Electrons    NEL             ....   66
 Basis Dimension        Dim             ....  327

ORBITAL ENERGIES
----------------

  NO   OCC          E(Eh)            E(eV)
   0   2.0000     -20.509953      -558.1042
   1   2.0000     -15.581660      -423.9985
   2   2.0000     -15.580292      -423.9613
   3   2.0000     -11.352273      -308.9111
   4   2.0000     -11.280245      -306.9511
   5   2.0000     -11.277888      -306.8869
   6   2.0000     -11.275204      -306.8139
   7   2.0000     -11.254748      -306.2573
   8   2.0000     -11.236316      -305.7557
   9   2.0000      -1.375201       -37.4211
  10   2.0000      -1.308762       -35.6132
  11   2.0000      -1.207948       -32.8699
  12   2.0000      -1.081708       -29.4348
  13   2.0000      -1.012420       -27.5494
  14   2.0000      -0.908096       -24.7105
  15   2.0000      -0.834352       -22.7039
  16   2.0000      -0.809538       -22.0287
  17   2.0000      -0.753343       -20.4995
  18   2.0000      -0.735900       -20.0248
  19   2.0000      -0.686231       -18.6733
  20   2.0000      -0.657660       -17.8959
  21   2.0000      -0.635714       -17.2987
  22   2.0000      -0.602078       -16.3834
  23   2.0000      -0.591426       -16.0935
  24   2.0000      -0.565935       -15.3999
  25   2.0000      -0.544519       -14.8171
  26   2.0000      -0.527894       -14.3647
  27   2.0000      -0.506083       -13.7712
  28   2.0000      -0.494134       -13.4461
  29   2.0000      -0.430762       -11.7216
  30   2.0000      -0.418417       -11.3857
  31   2.0000      -0.410306       -11.1650
  32   2.0000      -0.342392        -9.3170
  33   0.0000       0.106988         2.9113
  34   0.0000       0.120786         3.2868
  35   0.0000       0.155016         4.2182
  36   0.0000       0.170997         4.6531
  37   0.0000       0.176632         4.8064

MULLIKEN ATOMIC CHARGES
-----------------------
   0 N :   -0.477749
   1 C :    0.233009
   2 O :   -0.352570
   3 C :   -0.024516
   4 C :   -0.065639
   5 N :   -0.208701
   6 C :   -0.158979
   7 C :   -0.067296
   8 C :   -0.236940
   9 H :    0.257892
  10 H :    0.257708
  11 H :    0.157345
  12 H :    0.134628
  13 H :    0.139025
  14 H :    0.139644
  15 H :    0.142532
  16 H :    0.130606
Sum of atomic charges:    0.0000000

LOEWDIN ATOMIC CHARGES
----------------------
   0 N :   -0.022430
   1 C :   -0.453325
   2 O :    0.083197
   3 C :   -0.149466
   4 C :   -0.134597
   5 N :    0.136661
   6 C :   -0.217448
   7 C :   -0.217511
   8 C :   -0.209800
   9 H :    0.173626
  10 H :    0.168146
  11 H :    0.150621
  12 H :    0.129190
  13 H :    0.132755
  14 H :    0.142192
  15 H :    0.145287
  16 H :    0.142900

  Mayer bond orders larger than 0.1
B(  0-N ,  1-C ) :   1.1682 B(  0-N ,  9-H ) :   0.8628 B(  0-N , 10-H ) :   0.8697
B(  1-C ,  2-O ) :   2.0080 B(  1-C ,  3-C ) :   0.9036 B(  2-O ,  3-C ) :  -0.1150
B(  3-C ,  4-C ) :   1.6844 B(  3-C ,  8-C ) :   0.9152 B(  4-C ,  5-N ) :   1.0182
B(  4-C , 11-H ) :   0.9257 B(  5-N ,  6-C ) :   0.8368 B(  5-N ,  7-C ) :   0.8902
B(  6-C ,  7-C ) :   0.9488 B(  6-C , 12-H ) :   0.9257 B(  6-C , 13-H ) :   0.9120
B(  7-C ,  8-C ) :   0.9513 B(  7-C , 14-H ) :   0.9152 B(  8-C , 15-H ) :   0.9127
B(  8-C , 16-H ) :   0.9035

MP2 TOTAL ENERGY:     -417.312167885 Eh
FINAL SINGLE POINT ENERGY      -417.312167884795

DIPOLE MOMENT
-------------
                                X             Y             Z
Electronic contribution:      4.17818      -1.36770      -1.20996
Nuclear contribution   :     -5.43248       2.55041       1.39592
                        -----------------------------------------
Total Dipole Moment    :     -1.25431       1.18271       0.18597
                        -----------------------------------------
Magnitude (a.u.)       :      1.73397
Magnitude (Debye)      :      4.40741

                             ****ORCA TERMINATED NORMALLY****
TOTAL RUN TIME: 0 days 0 hours 17 minutes 59 seconds 877 msec
