                         Program Version 3.0.3 - RELEASE   -
|  1> ! RI-MP2 RIJK def2-TZVP def2-TZVP/C def2-TZVP/JK TIGHTSCF
|  2> % maxcore 2000
|  3> % mp2 density relaxed end
|  4> *xyz 0 1
|  5>  C       -0.0468281639     1.4945246490     0.0195552372
|  6>  C       -0.0289822887    -0.0037104045    -0.0440331783
|  7>  C       -0.0672718497    -0.7178972234    -1.1774167831
|  8>  C        0.0199751466    -2.2216127210    -1.0447388726
|  9>  O        1.0606038144    -2.5542000155    -0.0779502843
| 10>  C        0.1065331471    -2.2821573212     0.9843237156
| 11>  C        0.0783499815    -0.7739002426     1.2650209480
| 12>  C       -1.0260577361    -2.7019987443     0.0047519162
| 13>  O       -2.3024756109    -2.1485986261     0.0684193665
| 14>  H        0.8752340569     1.8749523712     0.4777303199
| 15>  H       -0.1421142282     1.9403107180    -0.9741309949
| 16>  H       -0.8737764552     1.8584431897     0.6423195186
| 17>  H       -0.1476683809    -0.2511348966    -2.1543386754
| 18>  H        0.1406947934    -2.7540431128    -1.9898650379
| 19>  H        0.2962509430    -2.8815315792     1.8786443421
| 20>  H        0.9842692747    -0.4703931663     1.8057025286
| 21>  H       -0.7695953768    -0.5325225907     1.9212455419
| 22>  H       -1.1321158880    -3.7877194436    -0.0139791391
| 23>  H       -2.2178431590    -1.2138942901    -0.1625961190
| 24> *
| 25>
| 26>                          ****END OF INPUT****

CARTESIAN COORDINATES (ANGSTROEM)
---------------------------------
  C     -0.046828    1.494525    0.019555
  C     -0.028982   -0.003710   -0.044033
  C     -0.067272   -0.717897   -1.177417
  C      0.019975   -2.221613   -1.044739
  O      1.060604   -2.554200   -0.077950
  C      0.106533   -2.282157    0.984324
  C      0.078350   -0.773900    1.265021
  C     -1.026058   -2.701999    0.004752
  O     -2.302476   -2.148599    0.068419
  H      0.875234    1.874952    0.477730
  H     -0.142114    1.940311   -0.974131
  H     -0.873776    1.858443    0.642320
  H     -0.147668   -0.251135   -2.154339
  H      0.140695   -2.754043   -1.989865
  H      0.296251   -2.881532    1.878644
  H      0.984269   -0.470393    1.805703
  H     -0.769595   -0.532523    1.921246
  H     -1.132116   -3.787719   -0.013979
  H     -2.217843   -1.213894   -0.162596

 Total Charge           Charge          ....    0
 Multiplicity           Mult            ....    1
 Number of Electrons    NEL             ....   68
 Basis Dimension        Dim             ....  339

ORBITAL ENERGIES
----------------

  NO   OCC          E(Eh)            E(eV)
   0   2.0000     -20.561743      -559.5135
   1   2.0000     -20.550978      -559.2205
   2   2.0000     -11.288363      -307.1720
   3   2.0000     -11.285940      -307.1060
   4   2.0000     -11.284886      -307.0774
   5   2.0000     -11.252870      -306.2062
   6   2.0000     -11.238047      -305.8028
   7   2.0000     -11.233719      -305.6850
   8   2.0000     -11.228870      -305.5531
   9   2.0000      -1.396024       -37.9878
  10   2.0000      -1.362607       -37.0784
  11   2.0000      -1.115526       -30.3550
  12   2.0000      -1.012178       -27.5428
  13   2.0000      -0.999985       -27.2110
  14   2.0000      -0.943405       -25.6713
  15   2.0000      -0.854432       -23.2503
  16   2.0000      -0.798725       -21.7344
  17   2.0000      -0.747512       -20.3408
  18   2.0000      -0.693179       -18.8624
  19   2.0000      -0.653506       -17.7828
  20   2.0000      -0.633215       -17.2306
  21   2.0000      -0.619731       -16.8637
  22   2.0000      -0.606148       -16.4941
  23   2.0000      -0.589725       -16.0472
  24   2.0000      -0.578914       -15.7531
  25   2.0000      -0.552894       -15.0450
  26   2.0000      -0.546366       -14.8674
  27   2.0000      -0.537072       -14.6145
  28   2.0000      -0.530328       -14.4309
  29   2.0000      -0.495697       -13.4886
  30   2.0000      -0.473067       -12.8728
  31   2.0000      -0.420615       -11.4455
  32   2.0000      -0.407355       -11.0847
  33   2.0000      -0.353235        -9.6120
  34   0.0000       0.125957         3.4275
  35   0.0000       0.127960         3.4820
  36   0.0000       0.156661         4.2630
  37   0.0000       0.165742         4.5101
  38   0.0000       0.180607         4.9146

MULLIKEN ATOMIC CHARGES
-----------------------
   0 C :   -0.421960
   1 C :   -0.001110
   2 C :   -0.356581
   3 C :    0.181226
   4 O :   -0.324951
   5 C :    0.093421
   6 C :   -0.232786
   7 C :    0.013881
   8 O :   -0.457568
   9 H :    0.144487
  10 H :    0.138477
  11 H :    0.138205
  12 H :    0.119671
  13 H :    0.133161
  14 H :    0.124078
  15 H :    0.129515
  16 H :    0.130504
  17 H :    0.117962
  18 H :    0.330368
Sum of atomic charges:    0.0000000

LOEWDIN ATOMIC CHARGES
----------------------
   0 C :   -0.270845
   1 C :   -0.186236
   2 C :   -0.139689
   3 C :   -0.244881
   4 O :    0.164628
   5 C :   -0.250511
   6 C :   -0.205080
   7 C :   -0.304050
   8 O :    0.003541
   9 H :    0.134590
  10 H :    0.130740
  11 H :    0.131054
  12 H :    0.141838
  13 H :    0.135526
  14 H :    0.133230
  15 H :    0.150398
  16 H :    0.151005
  17 H :    0.146358
  18 H :    0.178382

  Mayer bond orders larger than 0.1
B(  0-C ,  1-C ) :   0.9074 B(  0-C ,  9-H ) :   0.9304 B(  0-C , 10-H ) :   0.9449
B(  0-C , 11-H ) :   0.9279 B(  1-C ,  2-C ) :   1.7527 B(  1-C ,  6-C ) :   0.9760
B(  2-C ,  3-C ) :   0.8804 B(  2-C , 12-H ) :   0.9309 B(  3-C ,  4-O ) :   0.9320
B(  3-C ,  7-C ) :   0.9150 B(  3-C , 13-H ) :   0.9160 B(  4-O ,  5-C ) :   0.9482
B(  5-C ,  6-C ) :   0.9237 B(  5-C ,  7-C ) :   0.9154 B(  5-C , 14-H ) :   0.9155
B(  6-C , 15-H ) :   0.8979 B(  6-C , 16-H ) :   0.8984 B(  7-C ,  8-O ) :   1.0287
B(  7-C , 17-H ) :   0.9348 B(  8-O , 18-H ) :   0.8205

MP2 TOTAL ENERGY:     -422.314100843 Eh
FINAL SINGLE POINT ENERGY      -422.314100842783

DIPOLE MOMENT
-------------
                                X             Y             Z
Electronic contribution:      0.18589      -5.87828      -1.20819
Nuclear contribution   :     -0.24953       6.63539       1.23924
                        -----------------------------------------
Total Dipole Moment    :     -0.06363       0.75712       0.03105
                        -----------------------------------------
Magnitude (a.u.)       :      0.76042
Magnitude (Debye)      :      1.93284

                             ****ORCA TERMINATED NORMALLY****
TOTAL RUN TIME: 0 days 0 hours 19 minutes 9 seconds 209 msec
