                         Program Version 3.0.3 - RELEASE   -
|  1> ! RI-MP2 RIJK def2-TZVP def2-TZVP/C def2-TZVP/JK TIGHTSCF
|  2> % maxcore 2000
|  3> % mp2 density relaxed end
|  4> *xyz 0 1
|  5>  C       -0.1181780659     1.1084662552    -0.8399326084
|  6>  C       -0.1021897742    -0.1744003748    -0.0219409205
|  7>  O        1.0479399273    -0.9776739760    -0.3247520656
|  8>  C        0.9178367245    -1.8613949407    -1.3210825429
|  9>  N        1.9212786143    -2.5204972679    -1.7129590844
| 10>  C        1.7691813568    -3.5025228862    -2.7667253911
| 11>  C        0.4232872403    -3.6480172673    -3.3543266334
| 12>  N       -0.6481685695    -3.7228937090    -3.7818995321
| 13>  H        0.8048005749     1.6733833207    -0.6841291168
| 14>  H       -0.2151976785     0.8939003236    -1.9086777100
| 15>  H       -0.9645501110     1.7340572680    -0.5394332795
| 16>  H       -0.0257503850     0.0410335957     1.0467047460
| 17>  H       -1.0158551746    -0.7607384271    -0.1826916673
| 18>  H       -0.0990667335    -1.9571946847    -1.7254189017
| 19>  H        2.4671609503    -3.2625660805    -3.5785190597
| 20>  H        2.0799252639    -4.4840592991    -2.3870040426
| 21> *
| 22>
| 23>                          ****END OF INPUT****

CARTESIAN COORDINATES (ANGSTROEM)
---------------------------------
  C     -0.118178    1.108466   -0.839933
  C     -0.102190   -0.174400   -0.021941
  O      1.047940   -0.977674   -0.324752
  C      0.917837   -1.861395   -1.321083
  N      1.921279   -2.520497   -1.712959
  C      1.769181   -3.502523   -2.766725
  C      0.423287   -3.648017   -3.354327
  N     -0.648169   -3.722894   -3.781900
  H      0.804801    1.673383   -0.684129
  H     -0.215198    0.893900   -1.908678
  H     -0.964550    1.734057   -0.539433
  H     -0.025750    0.041034    1.046705
  H     -1.015855   -0.760738   -0.182692
  H     -0.099067   -1.957195   -1.725419
  H      2.467161   -3.262566   -3.578519
  H      2.079925   -4.484059   -2.387004

 Total Charge           Charge          ....    0
 Multiplicity           Mult            ....    1
 Number of Electrons    NEL             ....   60
 Basis Dimension        Dim             ....  296

ORBITAL ENERGIES
----------------

  NO   OCC          E(Eh)            E(eV)
   0   2.0000     -20.602710      -560.6282
   1   2.0000     -15.579579      -423.9419
   2   2.0000     -15.566390      -423.5830
   3   2.0000     -11.351330      -308.8854
   4   2.0000     -11.313691      -307.8612
   5   2.0000     -11.305585      -307.6406
   6   2.0000     -11.280648      -306.9620
   7   2.0000     -11.236230      -305.7534
   8   2.0000      -1.440042       -39.1855
   9   2.0000      -1.254014       -34.1235
  10   2.0000      -1.219110       -33.1737
  11   2.0000      -1.053175       -28.6584
  12   2.0000      -1.005331       -27.3565
  13   2.0000      -0.885498       -24.0956
  14   2.0000      -0.832624       -22.6569
  15   2.0000      -0.740259       -20.1435
  16   2.0000      -0.722351       -19.6562
  17   2.0000      -0.664009       -18.0686
  18   2.0000      -0.645803       -17.5732
  19   2.0000      -0.640804       -17.4372
  20   2.0000      -0.616125       -16.7656
  21   2.0000      -0.576762       -15.6945
  22   2.0000      -0.564426       -15.3588
  23   2.0000      -0.547829       -14.9072
  24   2.0000      -0.522616       -14.2211
  25   2.0000      -0.509187       -13.8557
  26   2.0000      -0.475751       -12.9458
  27   2.0000      -0.472223       -12.8498
  28   2.0000      -0.442719       -12.0470
  29   2.0000      -0.400576       -10.9002
  30   0.0000       0.129783         3.5316
  31   0.0000       0.137667         3.7461
  32   0.0000       0.139241         3.7889
  33   0.0000       0.162717         4.4278
  34   0.0000       0.176059         4.7908

MULLIKEN ATOMIC CHARGES
-----------------------
   0 C :   -0.375792
   1 C :   -0.079888
   2 O :   -0.217276
   3 C :    0.073170
   4 N :   -0.211875
   5 C :    0.000437
   6 C :   -0.202920
   7 N :   -0.068535
   8 H :    0.141753
   9 H :    0.134291
  10 H :    0.134578
  11 H :    0.134524
  12 H :    0.118662
  13 H :    0.095414
  14 H :    0.161866
  15 H :    0.161590
Sum of atomic charges:   -0.0000000

LOEWDIN ATOMIC CHARGES
----------------------
   0 C :   -0.316719
   1 C :   -0.318150
   2 O :    0.251709
   3 C :   -0.357087
   4 N :    0.088594
   5 C :   -0.285662
   6 C :   -0.202263
   7 N :    0.056306
   8 H :    0.128279
   9 H :    0.124619
  10 H :    0.128931
  11 H :    0.132190
  12 H :    0.124085
  13 H :    0.123539
  14 H :    0.160777
  15 H :    0.160851

  Mayer bond orders larger than 0.1
B(  0-C ,  1-C ) :   0.9394 B(  0-C ,  8-H ) :   0.9314 B(  0-C ,  9-H ) :   0.9308
B(  0-C , 10-H ) :   0.9283 B(  1-C ,  2-O ) :   0.8509 B(  1-C , 11-H ) :   0.9314
B(  1-C , 12-H ) :   0.9413 B(  2-O ,  3-C ) :   1.1018 B(  3-C ,  4-N ) :   1.8311
B(  3-C , 13-H ) :   0.9149 B(  4-N ,  5-C ) :   0.9604 B(  5-C ,  6-C ) :   0.8622
B(  5-C , 14-H ) :   0.9112 B(  5-C , 15-H ) :   0.9098 B(  6-C ,  7-N ) :   2.8296

MP2 TOTAL ENERGY:     -379.285800792 Eh
FINAL SINGLE POINT ENERGY      -379.285800792268

DIPOLE MOMENT
-------------
                                X             Y             Z
Electronic contribution:      1.98231      -7.43224      -3.02950
Nuclear contribution   :     -1.99376       8.06252       3.51294
                        -----------------------------------------
Total Dipole Moment    :     -0.01145       0.63028       0.48344
                        -----------------------------------------
Magnitude (a.u.)       :      0.79442
Magnitude (Debye)      :      2.01925

                             ****ORCA TERMINATED NORMALLY****
TOTAL RUN TIME: 0 days 0 hours 9 minutes 38 seconds 952 msec
