                         Program Version 3.0.3 - RELEASE   -
|  1> ! RI-MP2 RIJK def2-TZVP def2-TZVP/C def2-TZVP/JK TIGHTSCF
|  2> % maxcore 2000
|  3> % mp2 density relaxed end
|  4> *xyz 0 1
|  5>  C       -0.0867941801     0.8839429609    -0.6302786882
|  6>  O       -0.4660698469    -0.2504863637     0.1445248210
|  7>  C        0.4109091980    -0.5547240640     1.1731970795
|  8>  C        0.1930492461     0.1722382057     2.4518012778
|  9>  O        0.8346192117    -0.0110164323     3.4607920644
| 10>  C        0.8885259746    -1.9921682723     1.3405845613
| 11>  C        1.1223224195    -2.5767561511    -0.0473074576
| 12>  O        2.0149766174    -1.4754407653    -0.3955040389
| 13>  C        1.8703247430    -0.9425797326     0.9082398252
| 14>  H        0.8737709893     0.7126379913    -1.1273369478
| 15>  H       -0.8677761647     1.0216038316    -1.3808860028
| 16>  H       -0.0236941942     1.7922465251    -0.0158154362
| 17>  H       -0.6320601794     0.9162197577     2.4019775928
| 18>  H        0.7789446610    -2.5176492298     2.2785935776
| 19>  H        1.6779188097    -3.5189427340    -0.0299824784
| 20>  H        0.2628920875    -2.6396820070    -0.7190350056
| 21>  H        2.7131752675    -0.4635763002     1.3916834958
| 22> *
| 23>
| 24>                          ****END OF INPUT****

CARTESIAN COORDINATES (ANGSTROEM)
---------------------------------
  C     -0.086794    0.883943   -0.630279
  O     -0.466070   -0.250486    0.144525
  C      0.410909   -0.554724    1.173197
  C      0.193049    0.172238    2.451801
  O      0.834619   -0.011016    3.460792
  C      0.888526   -1.992168    1.340585
  C      1.122322   -2.576756   -0.047307
  O      2.014977   -1.475441   -0.395504
  C      1.870325   -0.942580    0.908240
  H      0.873771    0.712638   -1.127337
  H     -0.867776    1.021604   -1.380886
  H     -0.023694    1.792247   -0.015815
  H     -0.632060    0.916220    2.401978
  H      0.778945   -2.517649    2.278594
  H      1.677919   -3.518943   -0.029982
  H      0.262892   -2.639682   -0.719035
  H      2.713175   -0.463576    1.391683

 Total Charge           Charge          ....    0
 Multiplicity           Mult            ....    1
 Number of Electrons    NEL             ....   68
 Basis Dimension        Dim             ....  327

ORBITAL ENERGIES
----------------

  NO   OCC          E(Eh)            E(eV)
   0   2.0000     -20.580191      -560.0155
   1   2.0000     -20.572601      -559.8089
   2   2.0000     -20.562550      -559.5354
   3   2.0000     -11.341849      -308.6274
   4   2.0000     -11.311298      -307.7961
   5   2.0000     -11.308777      -307.7275
   6   2.0000     -11.298793      -307.4558
   7   2.0000     -11.282006      -306.9990
   8   2.0000     -11.259239      -306.3795
   9   2.0000      -1.428041       -38.8590
  10   2.0000      -1.400734       -38.1159
  11   2.0000      -1.388489       -37.7827
  12   2.0000      -1.133609       -30.8471
  13   2.0000      -0.976100       -26.5610
  14   2.0000      -0.952481       -25.9183
  15   2.0000      -0.902504       -24.5584
  16   2.0000      -0.780722       -21.2445
  17   2.0000      -0.774182       -21.0666
  18   2.0000      -0.734362       -19.9830
  19   2.0000      -0.703127       -19.1331
  20   2.0000      -0.676535       -18.4094
  21   2.0000      -0.646668       -17.5967
  22   2.0000      -0.642638       -17.4871
  23   2.0000      -0.623643       -16.9702
  24   2.0000      -0.611915       -16.6511
  25   2.0000      -0.581306       -15.8181
  26   2.0000      -0.551182       -14.9984
  27   2.0000      -0.525844       -14.3089
  28   2.0000      -0.510245       -13.8845
  29   2.0000      -0.493197       -13.4206
  30   2.0000      -0.481372       -13.0988
  31   2.0000      -0.451803       -12.2942
  32   2.0000      -0.411164       -11.1883
  33   2.0000      -0.383687       -10.4406
  34   0.0000       0.112777         3.0688
  35   0.0000       0.150160         4.0861
  36   0.0000       0.155724         4.2375
  37   0.0000       0.169778         4.6199
  38   0.0000       0.180596         4.9143

MULLIKEN ATOMIC CHARGES
-----------------------
   0 C :   -0.219214
   1 O :   -0.324059
   2 C :    0.195302
   3 C :    0.037825
   4 O :   -0.284950
   5 C :   -0.208362
   6 C :   -0.004275
   7 O :   -0.333634
   8 C :    0.070425
   9 H :    0.149844
  10 H :    0.142024
  11 H :    0.117390
  12 H :    0.103172
  13 H :    0.160516
  14 H :    0.124351
  15 H :    0.124625
  16 H :    0.149022
Sum of atomic charges:    0.0000000

LOEWDIN ATOMIC CHARGES
----------------------
   0 C :   -0.329282
   1 O :    0.200386
   2 C :   -0.331391
   3 C :   -0.258456
   4 O :    0.130295
   5 C :   -0.141344
   6 C :   -0.219594
   7 O :    0.160306
   8 C :   -0.209353
   9 H :    0.112597
  10 H :    0.115109
  11 H :    0.103858
  12 H :    0.121608
  13 H :    0.147888
  14 H :    0.129928
  15 H :    0.127198
  16 H :    0.140248

  Mayer bond orders larger than 0.1
B(  0-C ,  1-O ) :   0.8661 B(  0-C ,  9-H ) :   0.9292 B(  0-C , 10-H ) :   0.9397
B(  0-C , 11-H ) :   0.9309 B(  1-O ,  2-C ) :   0.9673 B(  2-C ,  3-C ) :   0.8899
B(  2-C ,  5-C ) :   0.8436 B(  2-C ,  8-C ) :   0.8191 B(  3-C ,  4-O ) :   1.9687
B(  3-C , 12-H ) :   0.9646 B(  5-C ,  6-C ) :   0.9707 B(  5-C ,  8-C ) :   0.9213
B(  5-C , 13-H ) :   0.9026 B(  6-C ,  7-O ) :   0.9077 B(  6-C , 14-H ) :   0.9166
B(  6-C , 15-H ) :   0.9108 B(  7-O ,  8-C ) :   0.9512 B(  8-C , 16-H ) :   0.9028

MP2 TOTAL ENERGY:     -458.163655755 Eh
FINAL SINGLE POINT ENERGY      -458.163655755393

DIPOLE MOMENT
-------------
                                X             Y             Z
Electronic contribution:      0.89529      -1.09839       3.67442
Nuclear contribution   :     -1.12128       1.02982      -4.19620
                        -----------------------------------------
Total Dipole Moment    :     -0.22599      -0.06857      -0.52178
                        -----------------------------------------
Magnitude (a.u.)       :      0.57274
Magnitude (Debye)      :      1.45578

                             ****ORCA TERMINATED NORMALLY****
TOTAL RUN TIME: 0 days 0 hours 17 minutes 14 seconds 484 msec
