                         Program Version 3.0.3 - RELEASE   -
|  1> ! RI-MP2 RIJK def2-TZVP def2-TZVP/C def2-TZVP/JK TIGHTSCF
|  2> % maxcore 2000
|  3> % mp2 density relaxed end
|  4> *xyz 0 1
|  5>  O        0.1939221139    -0.1172370121    -0.0839888865
|  6>  C        0.0076108397     1.0775321032    -0.1030906287
|  7>  C        1.1621787690     2.0036233356    -0.0134655009
|  8>  N        2.0583241261     2.7325644619     0.0415070064
|  9>  C       -1.2968905516     1.7636476397    -0.1689949421
| 10>  C       -2.6205463017     1.1245933627    -0.5724472797
| 11>  C       -2.7288447949    -0.3035648895    -0.0325283630
| 12>  O       -2.4217049185     0.1652879573     1.3177985541
| 13>  C       -2.4138116746     1.4934529765     0.8620913107
| 14>  H       -1.2400665256     2.8190398882    -0.4186461353
| 15>  H       -3.2357183007     1.5708067595    -1.3416857160
| 16>  H       -3.7558384279    -0.6786917599    -0.0653102205
| 17>  H       -2.0176250702    -1.0491651105    -0.3839639378
| 18>  H       -2.7861921128     2.2764907073     1.5119116293
| 19> *
| 20>
| 21>                          ****END OF INPUT****

CARTESIAN COORDINATES (ANGSTROEM)
---------------------------------
  O      0.193922   -0.117237   -0.083989
  C      0.007611    1.077532   -0.103091
  C      1.162179    2.003623   -0.013466
  N      2.058324    2.732564    0.041507
  C     -1.296891    1.763648   -0.168995
  C     -2.620546    1.124593   -0.572447
  C     -2.728845   -0.303565   -0.032528
  O     -2.421705    0.165288    1.317799
  C     -2.413812    1.493453    0.862091
  H     -1.240067    2.819040   -0.418646
  H     -3.235718    1.570807   -1.341686
  H     -3.755838   -0.678692   -0.065310
  H     -2.017625   -1.049165   -0.383964
  H     -2.786192    2.276491    1.511912

 Total Charge           Charge          ....    0
 Multiplicity           Mult            ....    1
 Number of Electrons    NEL             ....   64
 Basis Dimension        Dim             ....  309

ORBITAL ENERGIES
----------------

  NO   OCC          E(Eh)            E(eV)
   0   2.0000     -20.592886      -560.3609
   1   2.0000     -20.584440      -560.1311
   2   2.0000     -15.607178      -424.6929
   3   2.0000     -11.398077      -310.1574
   4   2.0000     -11.335442      -308.4531
   5   2.0000     -11.308130      -307.7099
   6   2.0000     -11.295736      -307.3726
   7   2.0000     -11.284391      -307.0639
   8   2.0000     -11.282149      -307.0029
   9   2.0000      -1.440626       -39.2014
  10   2.0000      -1.424477       -38.7620
  11   2.0000      -1.243794       -33.8453
  12   2.0000      -1.161472       -31.6052
  13   2.0000      -1.009115       -27.4594
  14   2.0000      -0.964118       -26.2350
  15   2.0000      -0.851913       -23.1817
  16   2.0000      -0.788748       -21.4629
  17   2.0000      -0.757495       -20.6125
  18   2.0000      -0.726052       -19.7569
  19   2.0000      -0.688918       -18.7464
  20   2.0000      -0.671555       -18.2739
  21   2.0000      -0.611238       -16.6326
  22   2.0000      -0.606532       -16.5046
  23   2.0000      -0.593422       -16.1478
  24   2.0000      -0.584510       -15.9053
  25   2.0000      -0.527057       -14.3419
  26   2.0000      -0.518344       -14.1048
  27   2.0000      -0.507009       -13.7964
  28   2.0000      -0.486108       -13.2277
  29   2.0000      -0.483741       -13.1633
  30   2.0000      -0.443272       -12.0621
  31   2.0000      -0.408307       -11.1106
  32   0.0000       0.055373         1.5068
  33   0.0000       0.128039         3.4841
  34   0.0000       0.148736         4.0473
  35   0.0000       0.162044         4.4094
  36   0.0000       0.167946         4.5701

MULLIKEN ATOMIC CHARGES
-----------------------
   0 O :   -0.262630
   1 C :    0.356573
   2 C :   -0.166525
   3 N :   -0.038738
   4 C :   -0.203056
   5 C :   -0.193136
   6 C :   -0.010526
   7 O :   -0.315551
   8 C :    0.091313
   9 H :    0.158344
  10 H :    0.158895
  11 H :    0.126664
  12 H :    0.144942
  13 H :    0.153433
Sum of atomic charges:    0.0000000

LOEWDIN ATOMIC CHARGES
----------------------
   0 O :    0.204814
   1 C :   -0.313751
   2 C :   -0.130883
   3 N :    0.094496
   4 C :   -0.159523
   5 C :   -0.159177
   6 C :   -0.214578
   7 O :    0.175990
   8 C :   -0.216455
   9 H :    0.174762
  10 H :    0.145313
  11 H :    0.130652
  12 H :    0.128818
  13 H :    0.139522

  Mayer bond orders larger than 0.1
B(  0-O ,  1-C ) :   1.9069 B(  1-C ,  2-C ) :   0.8884 B(  1-C ,  4-C ) :   0.9621
B(  2-C ,  3-N ) :   2.8097 B(  4-C ,  5-C ) :   0.8536 B(  4-C ,  8-C ) :   0.7991
B(  4-C ,  9-H ) :   0.9115 B(  5-C ,  6-C ) :   0.9795 B(  5-C ,  8-C ) :   0.9097
B(  5-C , 10-H ) :   0.9086 B(  6-C ,  7-O ) :   0.8901 B(  6-C , 11-H ) :   0.9158
B(  6-C , 12-H ) :   0.9089 B(  7-O ,  8-C ) :   1.0084 B(  8-C , 13-H ) :   0.9184

MP2 TOTAL ENERGY:     -435.918901936 Eh
FINAL SINGLE POINT ENERGY      -435.918901935730

DIPOLE MOMENT
-------------
                                X             Y             Z
Electronic contribution:      5.98974       0.64667       0.78845
Nuclear contribution   :     -7.84724      -0.34196      -1.37606
                        -----------------------------------------
Total Dipole Moment    :     -1.85750       0.30471      -0.58761
                        -----------------------------------------
Magnitude (a.u.)       :      1.97191
Magnitude (Debye)      :      5.01220

                             ****ORCA TERMINATED NORMALLY****
TOTAL RUN TIME: 0 days 0 hours 15 minutes 10 seconds 541 msec
