                         Program Version 3.0.3 - RELEASE   -
|  1> ! RI-MP2 RIJK def2-TZVP def2-TZVP/C def2-TZVP/JK TIGHTSCF
|  2> % maxcore 2000
|  3> % mp2 density relaxed end
|  4> *xyz 0 1
|  5>  C        0.3004569091     1.4396926118     0.2550824004
|  6>  C       -0.1889222829     0.0399163270    -0.1329859559
|  7>  C        0.5632859226    -0.5126570669    -1.3270060006
|  8>  C        1.9265513485    -1.1742296721    -1.1537634022
|  9>  O        2.4333220407    -1.3770959141     0.1275585834
| 10>  C        0.7207538107    -1.9958615087    -1.5540216968
| 11>  O        0.2330591510    -2.8416903887    -0.5385913925
| 12>  C        0.5734715146    -2.5972762941    -2.9240303747
| 13>  O        1.1561940781    -3.9008205353    -2.8616279357
| 14>  H        1.3563005036     1.4087746375     0.5394413328
| 15>  H        0.1955299324     2.1447224149    -0.5773787756
| 16>  H       -0.2697299925     1.8362495828     1.1011453761
| 17>  H       -0.0738131014    -0.6374948518     0.7165178574
| 18>  H       -1.2616184995     0.0646866508    -0.3615373659
| 19>  H        0.4519185645     0.0735314345    -2.2384003931
| 20>  H        2.7063639954    -0.9721007586    -1.8833915299
| 21>  H        1.9135389910    -2.1041041946     0.5007173119
| 22>  H        0.4981268834    -3.7303473232    -0.8171573012
| 23>  H       -0.4922258905    -2.6618770866    -3.1905207334
| 24>  H        1.0773557676    -1.9671037925    -3.6704974480
| 25>  H        0.8181381236    -4.4249557122    -3.5928920364
| 26> *
| 27>
| 28>                          ****END OF INPUT****

CARTESIAN COORDINATES (ANGSTROEM)
---------------------------------
  C      0.300457    1.439693    0.255082
  C     -0.188922    0.039916   -0.132986
  C      0.563286   -0.512657   -1.327006
  C      1.926551   -1.174230   -1.153763
  O      2.433322   -1.377096    0.127559
  C      0.720754   -1.995862   -1.554022
  O      0.233059   -2.841690   -0.538591
  C      0.573472   -2.597276   -2.924030
  O      1.156194   -3.900821   -2.861628
  H      1.356301    1.408775    0.539441
  H      0.195530    2.144722   -0.577379
  H     -0.269730    1.836250    1.101145
  H     -0.073813   -0.637495    0.716518
  H     -1.261618    0.064687   -0.361537
  H      0.451919    0.073531   -2.238400
  H      2.706364   -0.972101   -1.883392
  H      1.913539   -2.104104    0.500717
  H      0.498127   -3.730347   -0.817157
  H     -0.492226   -2.661877   -3.190521
  H      1.077356   -1.967104   -3.670497
  H      0.818138   -4.424956   -3.592892

 Total Charge           Charge          ....    0
 Multiplicity           Mult            ....    1
 Number of Electrons    NEL             ....   72
 Basis Dimension        Dim             ....  351

ORBITAL ENERGIES
----------------

  NO   OCC          E(Eh)            E(eV)
   0   2.0000     -20.578611      -559.9725
   1   2.0000     -20.569948      -559.7368
   2   2.0000     -20.549640      -559.1841
   3   2.0000     -11.295252      -307.3594
   4   2.0000     -11.287453      -307.1472
   5   2.0000     -11.274915      -306.8060
   6   2.0000     -11.228169      -305.5340
   7   2.0000     -11.217177      -305.2349
   8   2.0000     -11.204564      -304.8917
   9   2.0000      -1.400696       -38.1149
  10   2.0000      -1.373093       -37.3638
  11   2.0000      -1.350086       -36.7377
  12   2.0000      -1.129825       -30.7441
  13   2.0000      -1.021922       -27.8079
  14   2.0000      -0.955714       -26.0063
  15   2.0000      -0.862765       -23.4770
  16   2.0000      -0.802230       -21.8298
  17   2.0000      -0.769001       -20.9256
  18   2.0000      -0.729243       -19.8437
  19   2.0000      -0.701705       -19.0944
  20   2.0000      -0.682310       -18.5666
  21   2.0000      -0.652749       -17.7622
  22   2.0000      -0.624587       -16.9959
  23   2.0000      -0.611249       -16.6329
  24   2.0000      -0.591503       -16.0956
  25   2.0000      -0.568116       -15.4592
  26   2.0000      -0.550729       -14.9861
  27   2.0000      -0.537157       -14.6168
  28   2.0000      -0.529705       -14.4140
  29   2.0000      -0.520312       -14.1584
  30   2.0000      -0.501532       -13.6474
  31   2.0000      -0.485254       -13.2044
  32   2.0000      -0.474179       -12.9031
  33   2.0000      -0.470047       -12.7906
  34   2.0000      -0.392889       -10.6911
  35   2.0000      -0.371212       -10.1012
  36   0.0000       0.118913         3.2358
  37   0.0000       0.145423         3.9572
  38   0.0000       0.157541         4.2869
  39   0.0000       0.179126         4.8743
  40   0.0000       0.180034         4.8990

MULLIKEN ATOMIC CHARGES
-----------------------
   0 C :   -0.399050
   1 C :   -0.178390
   2 C :   -0.172691
   3 C :    0.010302
   4 O :   -0.483172
   5 C :    0.268231
   6 O :   -0.507518
   7 C :   -0.126307
   8 O :   -0.490122
   9 H :    0.146771
  10 H :    0.112996
  11 H :    0.129580
  12 H :    0.109720
  13 H :    0.114192
  14 H :    0.117928
  15 H :    0.120721
  16 H :    0.334907
  17 H :    0.344239
  18 H :    0.118624
  19 H :    0.103818
  20 H :    0.325222
Sum of atomic charges:    0.0000000

LOEWDIN ATOMIC CHARGES
----------------------
   0 C :   -0.313052
   1 C :   -0.267681
   2 C :   -0.181629
   3 C :   -0.282884
   4 O :    0.002108
   5 C :   -0.347752
   6 O :    0.019069
   7 C :   -0.308127
   8 O :   -0.054068
   9 H :    0.127024
  10 H :    0.117970
  11 H :    0.119449
  12 H :    0.142332
  13 H :    0.138571
  14 H :    0.153303
  15 H :    0.136962
  16 H :    0.181418
  17 H :    0.189058
  18 H :    0.124860
  19 H :    0.127704
  20 H :    0.175365

  Mayer bond orders larger than 0.1
B(  0-C ,  1-C ) :   0.9147 B(  0-C ,  9-H ) :   0.9401 B(  0-C , 10-H ) :   0.9354
B(  0-C , 11-H ) :   0.9415 B(  1-C ,  2-C ) :   0.8912 B(  1-C , 12-H ) :   0.9262
B(  1-C , 13-H ) :   0.9368 B(  2-C ,  3-C ) :   0.8662 B(  2-C ,  5-C ) :   0.8385
B(  2-C , 14-H ) :   0.9051 B(  3-C ,  4-O ) :   0.9783 B(  3-C ,  5-C ) :   0.8756
B(  3-C , 15-H ) :   0.9381 B(  4-O , 16-H ) :   0.8138 B(  5-C ,  6-O ) :   0.9714
B(  5-C ,  7-C ) :   0.9116 B(  6-O , 17-H ) :   0.8111 B(  7-C ,  8-O ) :   0.9923
B(  7-C , 18-H ) :   0.9344 B(  7-C , 19-H ) :   0.9218 B(  8-O , 20-H ) :   0.8427

MP2 TOTAL ENERGY:     -460.613948392 Eh
FINAL SINGLE POINT ENERGY      -460.613948392289

DIPOLE MOMENT
-------------
                                X             Y             Z
Electronic contribution:      2.62647      -7.07375      -1.16402
Nuclear contribution   :     -3.27979       6.57456      -0.02724
                        -----------------------------------------
Total Dipole Moment    :     -0.65332      -0.49919      -1.19126
                        -----------------------------------------
Magnitude (a.u.)       :      1.44745
Magnitude (Debye)      :      3.67913

                             ****ORCA TERMINATED NORMALLY****
TOTAL RUN TIME: 0 days 0 hours 16 minutes 22 seconds 832 msec
