                         Program Version 3.0.3 - RELEASE   -
|  1> ! RI-MP2 RIJK def2-TZVP def2-TZVP/C def2-TZVP/JK TIGHTSCF
|  2> % maxcore 2000
|  3> % mp2 density relaxed end
|  4> *xyz 0 1
|  5>  C        0.1137054141     1.4362068513     0.0377593918
|  6>  O        0.3274153441     0.0176218707     0.0317320002
|  7>  C        0.2622378527    -0.5682883081    -1.1797082789
|  8>  O        0.0433420821     0.0308486099    -2.2039493453
|  9>  C        0.4919480141    -2.0543253546    -1.0905640000
| 10>  C       -0.5509428972    -2.9441361977    -1.8169859233
| 11>  O        0.4625167062    -3.5613845358    -2.6298919676
| 12>  C        1.4648192359    -2.6533280867    -2.1384633405
| 13>  H        0.8638704104     1.9404597070    -0.5763683297
| 14>  H       -0.8780070402     1.6770284999    -0.3530550292
| 15>  H        0.2005352094     1.7447909204     1.0793781130
| 16>  H        0.6970183802    -2.3549724039    -0.0646536555
| 17>  H       -1.0787753239    -3.6699122012    -1.1889969675
| 18>  H       -1.2706341740    -2.3754837422    -2.4174780382
| 19>  H        1.7795249982    -1.9344095409    -2.9037544933
| 20>  H        2.3376760378    -3.1779024583    -1.7351993360
| 21> *
| 22>
| 23>                          ****END OF INPUT****

CARTESIAN COORDINATES (ANGSTROEM)
---------------------------------
  C      0.113705    1.436207    0.037759
  O      0.327415    0.017622    0.031732
  C      0.262238   -0.568288   -1.179708
  O      0.043342    0.030849   -2.203949
  C      0.491948   -2.054325   -1.090564
  C     -0.550943   -2.944136   -1.816986
  O      0.462517   -3.561385   -2.629892
  C      1.464819   -2.653328   -2.138463
  H      0.863870    1.940460   -0.576368
  H     -0.878007    1.677028   -0.353055
  H      0.200535    1.744791    1.079378
  H      0.697018   -2.354972   -0.064654
  H     -1.078775   -3.669912   -1.188997
  H     -1.270634   -2.375484   -2.417478
  H      1.779525   -1.934410   -2.903754
  H      2.337676   -3.177902   -1.735199

 Total Charge           Charge          ....    0
 Multiplicity           Mult            ....    1
 Number of Electrons    NEL             ....   62
 Basis Dimension        Dim             ....  296

ORBITAL ENERGIES
----------------

  NO   OCC          E(Eh)            E(eV)
   0   2.0000     -20.612064      -560.8828
   1   2.0000     -20.555264      -559.3372
   2   2.0000     -20.549257      -559.1737
   3   2.0000     -11.385317      -309.8102
   4   2.0000     -11.292552      -307.2860
   5   2.0000     -11.291839      -307.2666
   6   2.0000     -11.291426      -307.2553
   7   2.0000     -11.255682      -306.2827
   8   2.0000      -1.468503       -39.9600
   9   2.0000      -1.388433       -37.7812
  10   2.0000      -1.366470       -37.1835
  11   2.0000      -1.060708       -28.8633
  12   2.0000      -0.973353       -26.4863
  13   2.0000      -0.943956       -25.6864
  14   2.0000      -0.830424       -22.5970
  15   2.0000      -0.763578       -20.7780
  16   2.0000      -0.730425       -19.8759
  17   2.0000      -0.697751       -18.9868
  18   2.0000      -0.680651       -18.5215
  19   2.0000      -0.673198       -18.3187
  20   2.0000      -0.625110       -17.0101
  21   2.0000      -0.613219       -16.6865
  22   2.0000      -0.581071       -15.8118
  23   2.0000      -0.575433       -15.6583
  24   2.0000      -0.551747       -15.0138
  25   2.0000      -0.538081       -14.6419
  26   2.0000      -0.483339       -13.1523
  27   2.0000      -0.475796       -12.9471
  28   2.0000      -0.467178       -12.7126
  29   2.0000      -0.452871       -12.3232
  30   2.0000      -0.423625       -11.5274
  31   0.0000       0.141504         3.8505
  32   0.0000       0.143355         3.9009
  33   0.0000       0.158577         4.3151
  34   0.0000       0.170684         4.6445
  35   0.0000       0.186900         5.0858

MULLIKEN ATOMIC CHARGES
-----------------------
   0 C :   -0.219020
   1 O :   -0.252385
   2 C :    0.226583
   3 O :   -0.333185
   4 C :   -0.022308
   5 C :   -0.039093
   6 O :   -0.325780
   7 C :   -0.038684
   8 H :    0.141932
   9 H :    0.141752
  10 H :    0.146266
  11 H :    0.132652
  12 H :    0.105906
  13 H :    0.114249
  14 H :    0.115482
  15 H :    0.105634
Sum of atomic charges:   -0.0000000

LOEWDIN ATOMIC CHARGES
----------------------
   0 C :   -0.307295
   1 O :    0.230321
   2 C :   -0.474030
   3 O :    0.128336
   4 C :   -0.199451
   5 C :   -0.240255
   6 O :    0.115129
   7 C :   -0.240184
   8 H :    0.114803
   9 H :    0.114756
  10 H :    0.115232
  11 H :    0.155011
  12 H :    0.118413
  13 H :    0.125250
  14 H :    0.125616
  15 H :    0.118349

  Mayer bond orders larger than 0.1
B(  0-C ,  1-O ) :   0.8343 B(  0-C ,  8-H ) :   0.9379 B(  0-C ,  9-H ) :   0.9379
B(  0-C , 10-H ) :   0.9328 B(  1-O ,  2-C ) :   1.1311 B(  2-C ,  3-O ) :   1.9226
B(  2-C ,  4-C ) :   0.9384 B(  4-C ,  5-C ) :   0.9211 B(  4-C ,  7-C ) :   0.9238
B(  4-C , 11-H ) :   0.9177 B(  5-C ,  6-O ) :   0.9543 B(  5-C , 12-H ) :   0.9141
B(  5-C , 13-H ) :   0.9042 B(  6-O ,  7-C ) :   0.9534 B(  7-C , 14-H ) :   0.9040
B(  7-C , 15-H ) :   0.9139

MP2 TOTAL ENERGY:     -420.213192509 Eh
FINAL SINGLE POINT ENERGY      -420.213192508804

DIPOLE MOMENT
-------------
                                X             Y             Z
Electronic contribution:      0.01312      -1.30248      -1.54043
Nuclear contribution   :      0.06759       1.78783       2.63598
                        -----------------------------------------
Total Dipole Moment    :      0.08071       0.48535       1.09555
                        -----------------------------------------
Magnitude (a.u.)       :      1.20096
Magnitude (Debye)      :      3.05260

                             ****ORCA TERMINATED NORMALLY****
TOTAL RUN TIME: 0 days 0 hours 10 minutes 59 seconds 365 msec
