                         Program Version 3.0.3 - RELEASE   -
|  1> ! RI-MP2 RIJK def2-TZVP def2-TZVP/C def2-TZVP/JK TIGHTSCF
|  2> % maxcore 2000
|  3> % mp2 density relaxed end
|  4> *xyz 0 1
|  5>  C        0.0490454913     1.3578604259    -0.1808816157
|  6>  O        0.0060182827    -0.0420720096    -0.0693705406
|  7>  C       -1.3142869784    -0.5437273252     0.0119645769
|  8>  C       -1.2253764257    -2.0628706848     0.1034746469
|  9>  C       -2.5776004234    -2.8001646642     0.1029940924
| 10>  C       -2.3175245959    -4.3156797118     0.1058634513
| 11>  C       -3.4392080621    -2.4065041611     1.3158810403
| 12>  O       -3.1920353705    -2.3921505174    -1.1304797717
| 13>  C       -4.4815165133    -2.8792207860    -1.4214371367
| 14>  H        1.0999916597     1.6515395243    -0.2459807090
| 15>  H       -0.4755201950     1.7146125863    -1.0821028121
| 16>  H       -0.4035621528     1.8547017235     0.6931194579
| 17>  H       -1.8215784198    -0.1176634892     0.8938995413
| 18>  H       -1.8965019983    -0.2530773870    -0.8745086524
| 19>  H       -0.6418714045    -2.4145156783    -0.7540627408
| 20>  H       -0.6673742861    -2.3349846271     1.0059003491
| 21>  H       -1.7266982536    -4.5988893464     0.9823116478
| 22>  H       -3.2485671199    -4.8889769150     0.1404441360
| 23>  H       -1.7641772069    -4.6069837214    -0.7916191864
| 24>  H       -3.7407865141    -1.3570555383     1.2630283520
| 25>  H       -4.3444825905    -3.0171546852     1.3821048643
| 26>  H       -2.8770497579    -2.5556740665     2.2428719960
| 27>  H       -4.7487633696    -2.4762925119    -2.4021020120
| 28>  H       -4.5209334708    -3.9760143976    -1.4801595445
| 29>  H       -5.2366091347    -2.5449971058    -0.6960896803
| 30> *
| 31>
| 32>                          ****END OF INPUT****

CARTESIAN COORDINATES (ANGSTROEM)
---------------------------------
  C      0.049045    1.357860   -0.180882
  O      0.006018   -0.042072   -0.069371
  C     -1.314287   -0.543727    0.011965
  C     -1.225376   -2.062871    0.103475
  C     -2.577600   -2.800165    0.102994
  C     -2.317525   -4.315680    0.105863
  C     -3.439208   -2.406504    1.315881
  O     -3.192035   -2.392151   -1.130480
  C     -4.481517   -2.879221   -1.421437
  H      1.099992    1.651540   -0.245981
  H     -0.475520    1.714613   -1.082103
  H     -0.403562    1.854702    0.693119
  H     -1.821578   -0.117663    0.893900
  H     -1.896502   -0.253077   -0.874509
  H     -0.641871   -2.414516   -0.754063
  H     -0.667374   -2.334985    1.005900
  H     -1.726698   -4.598889    0.982312
  H     -3.248567   -4.888977    0.140444
  H     -1.764177   -4.606984   -0.791619
  H     -3.740787   -1.357056    1.263028
  H     -4.344483   -3.017155    1.382105
  H     -2.877050   -2.555674    2.242872
  H     -4.748763   -2.476293   -2.402102
  H     -4.520933   -3.976014   -1.480160
  H     -5.236609   -2.544997   -0.696090

 Total Charge           Charge          ....    0
 Multiplicity           Mult            ....    1
 Number of Electrons    NEL             ....   74
 Basis Dimension        Dim             ....  375

ORBITAL ENERGIES
----------------

  NO   OCC          E(Eh)            E(eV)
   0   2.0000     -20.546885      -559.1092
   1   2.0000     -20.545793      -559.0795
   2   2.0000     -11.286905      -307.1323
   3   2.0000     -11.266479      -306.5765
   4   2.0000     -11.263413      -306.4931
   5   2.0000     -11.261924      -306.4525
   6   2.0000     -11.216230      -305.2091
   7   2.0000     -11.213502      -305.1349
   8   2.0000     -11.211607      -305.0833
   9   2.0000      -1.368375       -37.2354
  10   2.0000      -1.364866       -37.1399
  11   2.0000      -1.080597       -29.4045
  12   2.0000      -0.995919       -27.1003
  13   2.0000      -0.940957       -25.6047
  14   2.0000      -0.930453       -25.3189
  15   2.0000      -0.900535       -24.5048
  16   2.0000      -0.832033       -22.6408
  17   2.0000      -0.749954       -20.4073
  18   2.0000      -0.669562       -18.2197
  19   2.0000      -0.661465       -17.9994
  20   2.0000      -0.648524       -17.6472
  21   2.0000      -0.640648       -17.4329
  22   2.0000      -0.622537       -16.9401
  23   2.0000      -0.607913       -16.5421
  24   2.0000      -0.584677       -15.9099
  25   2.0000      -0.569015       -15.4837
  26   2.0000      -0.553776       -15.0690
  27   2.0000      -0.550773       -14.9873
  28   2.0000      -0.533570       -14.5192
  29   2.0000      -0.507474       -13.8091
  30   2.0000      -0.495757       -13.4902
  31   2.0000      -0.487334       -13.2610
  32   2.0000      -0.480844       -13.0844
  33   2.0000      -0.467482       -12.7208
  34   2.0000      -0.442948       -12.0532
  35   2.0000      -0.415828       -11.3152
  36   2.0000      -0.410094       -11.1592
  37   0.0000       0.132709         3.6112
  38   0.0000       0.153555         4.1784
  39   0.0000       0.165765         4.5107
  40   0.0000       0.176191         4.7944
  41   0.0000       0.195600         5.3225

MULLIKEN ATOMIC CHARGES
-----------------------
   0 C :   -0.210577
   1 O :   -0.302858
   2 C :   -0.096972
   3 C :   -0.134929
   4 C :    0.196550
   5 C :   -0.419185
   6 C :   -0.469748
   7 O :   -0.307096
   8 C :   -0.234650
   9 H :    0.136047
  10 H :    0.109193
  11 H :    0.106287
  12 H :    0.085719
  13 H :    0.115124
  14 H :    0.115636
  15 H :    0.111393
  16 H :    0.133321
  17 H :    0.131570
  18 H :    0.142047
  19 H :    0.146436
  20 H :    0.138579
  21 H :    0.137901
  22 H :    0.142391
  23 H :    0.112332
  24 H :    0.115488
Sum of atomic charges:   -0.0000000

LOEWDIN ATOMIC CHARGES
----------------------
   0 C :   -0.366763
   1 O :    0.131761
   2 C :   -0.324715
   3 C :   -0.225933
   4 C :   -0.397136
   5 C :   -0.275619
   6 C :   -0.277045
   7 O :    0.169722
   8 C :   -0.361572
   9 H :    0.112088
  10 H :    0.100488
  11 H :    0.099251
  12 H :    0.115970
  13 H :    0.123586
  14 H :    0.149119
  15 H :    0.144518
  16 H :    0.129875
  17 H :    0.122003
  18 H :    0.129469
  19 H :    0.127332
  20 H :    0.124162
  21 H :    0.131615
  22 H :    0.114371
  23 H :    0.101913
  24 H :    0.101539

  Mayer bond orders larger than 0.1
B(  0-C ,  1-O ) :   0.9262 B(  0-C ,  9-H ) :   0.9400 B(  0-C , 10-H ) :   0.9367
B(  0-C , 11-H ) :   0.9373 B(  1-O ,  2-C ) :   0.9548 B(  2-C ,  3-C ) :   0.9501
B(  2-C , 12-H ) :   0.9259 B(  2-C , 13-H ) :   0.9244 B(  3-C ,  4-C ) :   0.8922
B(  3-C , 14-H ) :   0.9204 B(  3-C , 15-H ) :   0.9222 B(  4-C ,  5-C ) :   0.9102
B(  4-C ,  6-C ) :   0.9032 B(  4-C ,  7-O ) :   0.9463 B(  5-C , 16-H ) :   0.9292
B(  5-C , 17-H ) :   0.9333 B(  5-C , 18-H ) :   0.9417 B(  6-C , 19-H ) :   0.9414
B(  6-C , 20-H ) :   0.9325 B(  6-C , 21-H ) :   0.9290 B(  7-O ,  8-C ) :   0.9222
B(  8-C , 22-H ) :   0.9422 B(  8-C , 23-H ) :   0.9320 B(  8-C , 24-H ) :   0.9336

MP2 TOTAL ENERGY:     -425.904893329 Eh
FINAL SINGLE POINT ENERGY      -425.904893329480

DIPOLE MOMENT
-------------
                                X             Y             Z
Electronic contribution:      3.18157       1.51121      -2.06496
Nuclear contribution   :     -3.81373      -1.59296       2.34260
                        -----------------------------------------
Total Dipole Moment    :     -0.63216      -0.08175       0.27764
                        -----------------------------------------
Magnitude (a.u.)       :      0.69527
Magnitude (Debye)      :      1.76724

                             ****ORCA TERMINATED NORMALLY****
TOTAL RUN TIME: 0 days 0 hours 19 minutes 7 seconds 834 msec
