                         Program Version 3.0.3 - RELEASE   -
|  1> ! RI-MP2 RIJK def2-TZVP def2-TZVP/C def2-TZVP/JK TIGHTSCF
|  2> % maxcore 2000
|  3> % mp2 density relaxed end
|  4> *xyz 0 1
|  5>  C        0.2029201539     1.6700198880    -0.3322042474
|  6>  C        0.1355858068     0.1511516642    -0.1423827237
|  7>  C       -1.2955616243    -0.3823041378    -0.2687976492
|  8>  C       -1.5222728040    -1.8704158691    -0.0205296521
|  9>  C       -0.4561222074    -2.8829393447    -0.2469753608
| 10>  N       -0.8951375773    -2.5510829749     1.1222313547
| 11>  C       -2.9474539002    -2.2767209247    -0.2795581883
| 12>  C       -3.6728244727    -3.2172537744     0.5787674724
| 13>  O       -3.9216881376    -1.8096772446     0.6596490020
| 14>  H        1.2302641385     2.0359526509    -0.2436312917
| 15>  H       -0.1713198460     1.9609657364    -1.3197722657
| 16>  H       -0.4040544676     2.1896167543     0.4169534614
| 17>  H        0.7823096569    -0.3322895330    -0.8841698875
| 18>  H        0.5517718620    -0.1002878235     0.8422161116
| 19>  H       -1.9493246683     0.1629472155     0.4248457179
| 20>  H       -1.6705297851    -0.1474236449    -1.2746503287
| 21>  H       -0.7235289370    -3.8830915133    -0.5782165919
| 22>  H        0.5222857248    -2.5466236185    -0.5758243991
| 23>  H       -0.2158035036    -1.9380608529     1.5649426103
| 24>  H       -3.2608420307    -2.1777440783    -1.3214370165
| 25>  H       -4.4851332853    -3.8089221147     0.1577800560
| 26>  H       -3.1535559960    -3.6434332199     1.4325020064
| 27> *
| 28>
| 29>                          ****END OF INPUT****

CARTESIAN COORDINATES (ANGSTROEM)
---------------------------------
  C      0.202920    1.670020   -0.332204
  C      0.135586    0.151152   -0.142383
  C     -1.295562   -0.382304   -0.268798
  C     -1.522273   -1.870416   -0.020530
  C     -0.456122   -2.882939   -0.246975
  N     -0.895138   -2.551083    1.122231
  C     -2.947454   -2.276721   -0.279558
  C     -3.672824   -3.217254    0.578767
  O     -3.921688   -1.809677    0.659649
  H      1.230264    2.035953   -0.243631
  H     -0.171320    1.960966   -1.319772
  H     -0.404054    2.189617    0.416953
  H      0.782310   -0.332290   -0.884170
  H      0.551772   -0.100288    0.842216
  H     -1.949325    0.162947    0.424846
  H     -1.670530   -0.147424   -1.274650
  H     -0.723529   -3.883092   -0.578217
  H      0.522286   -2.546624   -0.575824
  H     -0.215804   -1.938061    1.564943
  H     -3.260842   -2.177744   -1.321437
  H     -4.485133   -3.808922    0.157780
  H     -3.153556   -3.643433    1.432502

 Total Charge           Charge          ....    0
 Multiplicity           Mult            ....    1
 Number of Electrons    NEL             ....   70
 Basis Dimension        Dim             ....  357

ORBITAL ENERGIES
----------------

  NO   OCC          E(Eh)            E(eV)
   0   2.0000     -20.559277      -559.4464
   1   2.0000     -15.558282      -423.3624
   2   2.0000     -11.281399      -306.9825
   3   2.0000     -11.271913      -306.7243
   4   2.0000     -11.270767      -306.6932
   5   2.0000     -11.257716      -306.3380
   6   2.0000     -11.231688      -305.6298
   7   2.0000     -11.229980      -305.5833
   8   2.0000     -11.220189      -305.3169
   9   2.0000      -1.402141       -38.1542
  10   2.0000      -1.266279       -34.4572
  11   2.0000      -1.070286       -29.1239
  12   2.0000      -0.984669       -26.7942
  13   2.0000      -0.930982       -25.3333
  14   2.0000      -0.889144       -24.1949
  15   2.0000      -0.871617       -23.7179
  16   2.0000      -0.812874       -22.1194
  17   2.0000      -0.763393       -20.7730
  18   2.0000      -0.694965       -18.9110
  19   2.0000      -0.675482       -18.3808
  20   2.0000      -0.658423       -17.9166
  21   2.0000      -0.640093       -17.4178
  22   2.0000      -0.587056       -15.9746
  23   2.0000      -0.565981       -15.4011
  24   2.0000      -0.564351       -15.3568
  25   2.0000      -0.538217       -14.6456
  26   2.0000      -0.533477       -14.5166
  27   2.0000      -0.501495       -13.6464
  28   2.0000      -0.495817       -13.4919
  29   2.0000      -0.488646       -13.2967
  30   2.0000      -0.470343       -12.7987
  31   2.0000      -0.464902       -12.6506
  32   2.0000      -0.439481       -11.9589
  33   2.0000      -0.425757       -11.5854
  34   2.0000      -0.387059       -10.5324
  35   0.0000       0.131831         3.5873
  36   0.0000       0.154715         4.2100
  37   0.0000       0.159824         4.3490
  38   0.0000       0.171386         4.6637
  39   0.0000       0.179028         4.8716

MULLIKEN ATOMIC CHARGES
-----------------------
   0 C :   -0.393522
   1 C :   -0.196842
   2 C :   -0.265338
   3 C :    0.153079
   4 C :   -0.223515
   5 N :   -0.367089
   6 C :    0.025279
   7 C :   -0.078638
   8 O :   -0.347117
   9 H :    0.136836
  10 H :    0.126039
  11 H :    0.129833
  12 H :    0.107220
  13 H :    0.096967
  14 H :    0.135084
  15 H :    0.116861
  16 H :    0.125593
  17 H :    0.129561
  18 H :    0.212419
  19 H :    0.125278
  20 H :    0.107370
  21 H :    0.144644
Sum of atomic charges:    0.0000000

LOEWDIN ATOMIC CHARGES
----------------------
   0 C :   -0.316786
   1 C :   -0.294620
   2 C :   -0.227565
   3 C :   -0.300263
   4 C :   -0.236634
   5 N :    0.016352
   6 C :   -0.258313
   7 C :   -0.256065
   8 O :    0.144468
   9 H :    0.121399
  10 H :    0.121945
  11 H :    0.122644
  12 H :    0.134566
  13 H :    0.130307
  14 H :    0.153080
  15 H :    0.149213
  16 H :    0.127419
  17 H :    0.122103
  18 H :    0.162326
  19 H :    0.140715
  20 H :    0.116385
  21 H :    0.127323

  Mayer bond orders larger than 0.1
B(  0-C ,  1-C ) :   0.9282 B(  0-C ,  9-H ) :   0.9431 B(  0-C , 10-H ) :   0.9387
B(  0-C , 11-H ) :   0.9409 B(  1-C ,  2-C ) :   0.9227 B(  1-C , 12-H ) :   0.9251
B(  1-C , 13-H ) :   0.9322 B(  2-C ,  3-C ) :   0.9299 B(  2-C , 14-H ) :   0.9299
B(  2-C , 15-H ) :   0.9160 B(  3-C ,  4-C ) :   0.9201 B(  3-C ,  5-N ) :   0.8750
B(  3-C ,  6-C ) :   0.8921 B(  4-C ,  5-N ) :   0.9385 B(  4-C , 16-H ) :   0.9094
B(  4-C , 17-H ) :   0.9200 B(  5-N , 18-H ) :   0.8804 B(  6-C ,  7-C ) :   0.9816
B(  6-C ,  8-O ) :   0.8467 B(  6-C , 19-H ) :   0.9187 B(  7-C ,  8-O ) :   0.9325
B(  7-C , 20-H ) :   0.9168 B(  7-C , 21-H ) :   0.9015

MP2 TOTAL ENERGY:     -403.609339159 Eh
FINAL SINGLE POINT ENERGY      -403.609339158683

DIPOLE MOMENT
-------------
                                X             Y             Z
Electronic contribution:     -6.50952      -6.02705       2.17817
Nuclear contribution   :      7.29886       6.04617      -2.82952
                        -----------------------------------------
Total Dipole Moment    :      0.78935       0.01912      -0.65135
                        -----------------------------------------
Magnitude (a.u.)       :      1.02357
Magnitude (Debye)      :      2.60170

                             ****ORCA TERMINATED NORMALLY****
TOTAL RUN TIME: 0 days 0 hours 17 minutes 10 seconds 516 msec
