                         Program Version 3.0.3 - RELEASE   -
|  1> ! RI-MP2 RIJK def2-TZVP def2-TZVP/C def2-TZVP/JK TIGHTSCF
|  2> % maxcore 2000
|  3> % mp2 density relaxed end
|  4> *xyz 0 1
|  5>  O       -0.0926940408     1.4148611337    -0.1068324754
|  6>  C        0.0207386844    -0.0107969052    -0.0094614038
|  7>  C        0.7904715806    -0.4513192805     1.2178423866
|  8>  C        0.4352483387    -0.1012704546     2.4532765359
|  9>  C       -0.8119758993     0.7012413979     2.7396329325
| 10>  C       -2.0859231843    -0.0695807922     2.3828456663
| 11>  N       -2.2736718035    -0.3783032716     0.9652577935
| 12>  C       -1.4166558029    -0.5610202338    -0.0868888885
| 13>  O       -1.7971838536    -1.1090928003    -1.1059324857
| 14>  H        0.7954615361     1.7744488161    -0.0063675037
| 15>  H        0.4976005318    -0.4099465340    -0.9109935591
| 16>  H        1.6709153239    -1.0654248543     1.0511774822
| 17>  H        1.0385715619    -0.4238666309     3.2980060194
| 18>  H       -0.8706009779     0.9472039042     3.8038169597
| 19>  H       -0.7944278674     1.6384249818     2.1775242602
| 20>  H       -2.1084888623    -1.0038328898     2.9651946636
| 21>  H       -2.9516365680     0.5241271728     2.7002965230
| 22>  H       -3.1732176075    -0.7865305094     0.7464709033
| 23> *
| 24>
| 25>                          ****END OF INPUT****

CARTESIAN COORDINATES (ANGSTROEM)
---------------------------------
  O     -0.092694    1.414861   -0.106832
  C      0.020739   -0.010797   -0.009461
  C      0.790472   -0.451319    1.217842
  C      0.435248   -0.101270    2.453277
  C     -0.811976    0.701241    2.739633
  C     -2.085923   -0.069581    2.382846
  N     -2.273672   -0.378303    0.965258
  C     -1.416656   -0.561020   -0.086889
  O     -1.797184   -1.109093   -1.105932
  H      0.795462    1.774449   -0.006368
  H      0.497601   -0.409947   -0.910994
  H      1.670915   -1.065425    1.051177
  H      1.038572   -0.423867    3.298006
  H     -0.870601    0.947204    3.803817
  H     -0.794428    1.638425    2.177524
  H     -2.108489   -1.003833    2.965195
  H     -2.951637    0.524127    2.700297
  H     -3.173218   -0.786531    0.746471

 Total Charge           Charge          ....    0
 Multiplicity           Mult            ....    1
 Number of Electrons    NEL             ....   68
 Basis Dimension        Dim             ....  333

ORBITAL ENERGIES
----------------

  NO   OCC          E(Eh)            E(eV)
   0   2.0000     -20.570246      -559.7449
   1   2.0000     -20.512707      -558.1791
   2   2.0000     -15.577473      -423.8846
   3   2.0000     -11.346970      -308.7667
   4   2.0000     -11.301767      -307.5367
   5   2.0000     -11.281410      -306.9828
   6   2.0000     -11.251775      -306.1764
   7   2.0000     -11.242512      -305.9243
   8   2.0000     -11.241602      -305.8996
   9   2.0000      -1.387583       -37.7580
  10   2.0000      -1.364867       -37.1399
  11   2.0000      -1.225011       -33.3343
  12   2.0000      -1.102592       -30.0031
  13   2.0000      -1.033004       -28.1095
  14   2.0000      -0.944704       -25.7067
  15   2.0000      -0.894318       -24.3356
  16   2.0000      -0.774154       -21.0658
  17   2.0000      -0.754071       -20.5193
  18   2.0000      -0.710124       -19.3234
  19   2.0000      -0.688502       -18.7351
  20   2.0000      -0.667112       -18.1530
  21   2.0000      -0.650416       -17.6987
  22   2.0000      -0.621932       -16.9236
  23   2.0000      -0.605888       -16.4871
  24   2.0000      -0.587637       -15.9904
  25   2.0000      -0.558006       -15.1841
  26   2.0000      -0.550253       -14.9731
  27   2.0000      -0.531692       -14.4681
  28   2.0000      -0.524376       -14.2690
  29   2.0000      -0.493882       -13.4392
  30   2.0000      -0.459878       -12.5139
  31   2.0000      -0.425253       -11.5717
  32   2.0000      -0.384680       -10.4677
  33   2.0000      -0.370134       -10.0719
  34   0.0000       0.104632         2.8472
  35   0.0000       0.132922         3.6170
  36   0.0000       0.146908         3.9976
  37   0.0000       0.162634         4.4255
  38   0.0000       0.166854         4.5403

MULLIKEN ATOMIC CHARGES
-----------------------
   0 O :   -0.465671
   1 C :    0.216305
   2 C :   -0.288130
   3 C :   -0.164454
   4 C :   -0.176818
   5 C :   -0.089888
   6 N :   -0.317586
   7 C :    0.190859
   8 O :   -0.347675
   9 H :    0.315624
  10 H :    0.109483
  11 H :    0.136591
  12 H :    0.134008
  13 H :    0.132182
  14 H :    0.137097
  15 H :    0.113879
  16 H :    0.128367
  17 H :    0.235826
Sum of atomic charges:    0.0000000

LOEWDIN ATOMIC CHARGES
----------------------
   0 O :   -0.013172
   1 C :   -0.290647
   2 C :   -0.164729
   3 C :   -0.156736
   4 C :   -0.252139
   5 C :   -0.271471
   6 N :    0.112280
   7 C :   -0.428639
   8 O :    0.085403
   9 H :    0.177362
  10 H :    0.150896
  11 H :    0.145645
  12 H :    0.144112
  13 H :    0.145872
  14 H :    0.152629
  15 H :    0.132237
  16 H :    0.136357
  17 H :    0.194741

  Mayer bond orders larger than 0.1
B(  0-O ,  1-C ) :   0.9550 B(  0-O ,  9-H ) :   0.8408 B(  1-C ,  2-C ) :   0.9188
B(  1-C ,  7-C ) :   0.8645 B(  1-C , 10-H ) :   0.9352 B(  2-C ,  3-C ) :   1.7852
B(  2-C , 11-H ) :   0.9272 B(  3-C ,  4-C ) :   0.9429 B(  3-C , 12-H ) :   0.9259
B(  4-C ,  5-C ) :   0.9308 B(  4-C , 13-H ) :   0.9270 B(  4-C , 14-H ) :   0.9062
B(  5-C ,  6-N ) :   0.8745 B(  5-C , 15-H ) :   0.9267 B(  5-C , 16-H ) :   0.9242
B(  6-N ,  7-C ) :   1.1826 B(  6-N , 17-H ) :   0.8596 B(  7-C ,  8-O ) :   1.9719

MP2 TOTAL ENERGY:     -438.385081179 Eh
FINAL SINGLE POINT ENERGY      -438.385081179268

DIPOLE MOMENT
-------------
                                X             Y             Z
Electronic contribution:     -0.82993      -1.18163      -5.57055
Nuclear contribution   :      1.42207       1.46470       7.19646
                        -----------------------------------------
Total Dipole Moment    :      0.59214       0.28306       1.62591
                        -----------------------------------------
Magnitude (a.u.)       :      1.75338
Magnitude (Debye)      :      4.45674

                             ****ORCA TERMINATED NORMALLY****
TOTAL RUN TIME: 0 days 0 hours 18 minutes 34 seconds 262 msec
