                         Program Version 3.0.3 - RELEASE   -
|  1> ! RI-MP2 RIJK def2-TZVP def2-TZVP/C def2-TZVP/JK TIGHTSCF
|  2> % maxcore 2000
|  3> % mp2 density relaxed end
|  4> *xyz 0 1
|  5>  O        0.0038479367     1.4259384648    -0.1237736698
|  6>  C        0.0053141692     0.0030550192     0.0158738503
|  7>  C        0.7814234889    -0.4286904084     1.2710868637
|  8>  C       -0.0133298595    -0.1423325901     2.5476332422
|  9>  C       -1.2704742146    -1.0204625651     2.6030801041
| 10>  O       -2.1306911547    -0.6592023731     3.6807849804
| 11>  C       -2.0848112498    -0.9553932055     1.3303690007
| 12>  C       -2.4900906422     0.3662006642     0.7425612744
| 13>  C       -1.4477355982    -0.4676774004     0.0397892526
| 14>  H        0.9216560323     1.7136958047    -0.1713772919
| 15>  H        0.4913421031    -0.4466918448    -0.8628204406
| 16>  H        0.9971738874    -1.5033700540     1.2012420483
| 17>  H        1.7532055009     0.0813602818     1.2899349518
| 18>  H        0.5996598605    -0.3366382541     3.4363877948
| 19>  H       -0.2997677652     0.9140161659     2.5826629414
| 20>  H       -0.9392347678    -2.0662308881     2.7305675050
| 21>  H       -1.6286711123    -0.7486402759     4.4978132878
| 22>  H       -2.8040885895    -1.7631005094     1.2345524626
| 23>  H       -3.4717435366     0.4424892140     0.2889148791
| 24>  H       -2.1523084792     1.2747466706     1.2245257143
| 25>  H       -1.7708045094    -0.9686631363    -0.8664829110
| 26> *
| 27>
| 28>                          ****END OF INPUT****

CARTESIAN COORDINATES (ANGSTROEM)
---------------------------------
  O      0.003848    1.425938   -0.123774
  C      0.005314    0.003055    0.015874
  C      0.781423   -0.428690    1.271087
  C     -0.013330   -0.142333    2.547633
  C     -1.270474   -1.020463    2.603080
  O     -2.130691   -0.659202    3.680785
  C     -2.084811   -0.955393    1.330369
  C     -2.490091    0.366201    0.742561
  C     -1.447736   -0.467677    0.039789
  H      0.921656    1.713696   -0.171377
  H      0.491342   -0.446692   -0.862820
  H      0.997174   -1.503370    1.201242
  H      1.753206    0.081360    1.289935
  H      0.599660   -0.336638    3.436388
  H     -0.299768    0.914016    2.582663
  H     -0.939235   -2.066231    2.730568
  H     -1.628671   -0.748640    4.497813
  H     -2.804089   -1.763101    1.234552
  H     -3.471744    0.442489    0.288915
  H     -2.152308    1.274747    1.224526
  H     -1.770805   -0.968663   -0.866483

 Total Charge           Charge          ....    0
 Multiplicity           Mult            ....    1
 Number of Electrons    NEL             ....   70
 Basis Dimension        Dim             ....  351

ORBITAL ENERGIES
----------------

  NO   OCC          E(Eh)            E(eV)
   0   2.0000     -20.551149      -559.2252
   1   2.0000     -20.548604      -559.1559
   2   2.0000     -11.282223      -307.0049
   3   2.0000     -11.278036      -306.8910
   4   2.0000     -11.227429      -305.5139
   5   2.0000     -11.224921      -305.4456
   6   2.0000     -11.222807      -305.3881
   7   2.0000     -11.220912      -305.3365
   8   2.0000     -11.212665      -305.1121
   9   2.0000      -1.357773       -36.9469
  10   2.0000      -1.354140       -36.8480
  11   2.0000      -1.150149       -31.2971
  12   2.0000      -1.056344       -28.7446
  13   2.0000      -0.981410       -26.7055
  14   2.0000      -0.883764       -24.0484
  15   2.0000      -0.845297       -23.0017
  16   2.0000      -0.782706       -21.2985
  17   2.0000      -0.726517       -19.7695
  18   2.0000      -0.694521       -18.8989
  19   2.0000      -0.685800       -18.6616
  20   2.0000      -0.672286       -18.2938
  21   2.0000      -0.626459       -17.0468
  22   2.0000      -0.615922       -16.7601
  23   2.0000      -0.586286       -15.9537
  24   2.0000      -0.571208       -15.5433
  25   2.0000      -0.564437       -15.3591
  26   2.0000      -0.529040       -14.3959
  27   2.0000      -0.508219       -13.8294
  28   2.0000      -0.500320       -13.6144
  29   2.0000      -0.477654       -12.9976
  30   2.0000      -0.466601       -12.6969
  31   2.0000      -0.436792       -11.8857
  32   2.0000      -0.428844       -11.6695
  33   2.0000      -0.403594       -10.9824
  34   2.0000      -0.400154       -10.8887
  35   0.0000       0.124734         3.3942
  36   0.0000       0.141243         3.8434
  37   0.0000       0.154932         4.2159
  38   0.0000       0.169762         4.6195
  39   0.0000       0.185006         5.0343

MULLIKEN ATOMIC CHARGES
-----------------------
   0 O :   -0.451072
   1 C :    0.052588
   2 C :   -0.286907
   3 C :   -0.220106
   4 C :    0.035050
   5 O :   -0.445982
   6 C :   -0.060674
   7 C :   -0.286265
   8 C :   -0.092582
   9 H :    0.305059
  10 H :    0.090329
  11 H :    0.111274
  12 H :    0.116491
  13 H :    0.116786
  14 H :    0.125443
  15 H :    0.073100
  16 H :    0.307276
  17 H :    0.115395
  18 H :    0.130177
  19 H :    0.142748
  20 H :    0.121873
Sum of atomic charges:    0.0000000

LOEWDIN ATOMIC CHARGES
----------------------
   0 O :   -0.019998
   1 C :   -0.324535
   2 C :   -0.247970
   3 C :   -0.251162
   4 C :   -0.335411
   5 O :   -0.018378
   6 C :   -0.182859
   7 C :   -0.188334
   8 C :   -0.174644
   9 H :    0.169885
  10 H :    0.136881
  11 H :    0.143556
  12 H :    0.134353
  13 H :    0.134336
  14 H :    0.144808
  15 H :    0.137293
  16 H :    0.170489
  17 H :    0.149582
  18 H :    0.133203
  19 H :    0.142176
  20 H :    0.146729

  Mayer bond orders larger than 0.1
B(  0-O ,  1-C ) :   1.0237 B(  0-O ,  9-H ) :   0.8476 B(  1-C ,  2-C ) :   0.9599
B(  1-C ,  8-C ) :   0.8937 B(  1-C , 10-H ) :   0.9378 B(  2-C ,  3-C ) :   0.8989
B(  2-C , 11-H ) :   0.9213 B(  2-C , 12-H ) :   0.9247 B(  3-C ,  4-C ) :   0.9226
B(  3-C , 13-H ) :   0.9252 B(  3-C , 14-H ) :   0.9235 B(  4-C ,  5-O ) :   1.0485
B(  4-C ,  6-C ) :   0.9208 B(  4-C , 15-H ) :   0.9508 B(  5-O ,  6-C ) :  -0.1036
B(  5-O , 16-H ) :   0.8484 B(  6-C ,  7-C ) :   0.8970 B(  6-C ,  8-C ) :   0.8636
B(  6-C , 17-H ) :   0.9291 B(  7-C ,  8-C ) :   0.8909 B(  7-C , 18-H ) :   0.9289
B(  7-C , 19-H ) :   0.9197 B(  8-C , 20-H ) :   0.9243

MP2 TOTAL ENERGY:     -423.528701691 Eh
FINAL SINGLE POINT ENERGY      -423.528701690999

DIPOLE MOMENT
-------------
                                X             Y             Z
Electronic contribution:     -1.73120       0.71316      -0.01925
Nuclear contribution   :      2.80855      -1.16479       0.08454
                        -----------------------------------------
Total Dipole Moment    :      1.07735      -0.45162       0.06529
                        -----------------------------------------
Magnitude (a.u.)       :      1.17000
Magnitude (Debye)      :      2.97391

                             ****ORCA TERMINATED NORMALLY****
TOTAL RUN TIME: 0 days 0 hours 18 minutes 59 seconds 244 msec
