                         Program Version 3.0.3 - RELEASE   -
|  1> ! RI-MP2 RIJK def2-TZVP def2-TZVP/C def2-TZVP/JK TIGHTSCF
|  2> % maxcore 2000
|  3> % mp2 density relaxed end
|  4> *xyz 0 1
|  5>  C        0.0933227338     1.5521666668     0.0583571880
|  6>  C        0.0463563137     0.0559457315    -0.0167504270
|  7>  C        0.6176147846    -0.8054418889    -1.1133105321
|  8>  N        2.0817856611    -0.9279900447    -0.8824577409
|  9>  C        1.1421403239    -1.8160060856    -0.1403346594
| 10>  C        0.5715532199    -1.0200666944     0.9911085142
| 11>  O        1.0918198091    -0.8538170040     2.2625758035
| 12>  C       -0.9051713996    -0.7944664805     0.8253456489
| 13>  O       -1.5300310622    -0.1614449539     1.8963478288
| 14>  H        1.1142612095     1.9243677144    -0.0742205349
| 15>  H       -0.5319289177     2.0019861547    -0.7220878425
| 16>  H       -0.2899832342     1.8975743866     1.0218746395
| 17>  H        0.1910785729    -1.0080136757    -2.0890757984
| 18>  H        2.4589980477    -1.4821498763    -1.6534686734
| 19>  H        1.1896563185    -2.8935801492    -0.2457115454
| 20>  H        1.9379757881    -0.3980892679     2.1848539594
| 21>  H       -1.5437601716    -1.5433193836     0.3575405543
| 22>  H       -0.8971009576    -0.1625904491     2.6274213475
| 23> *
| 24>
| 25>                          ****END OF INPUT****

CARTESIAN COORDINATES (ANGSTROEM)
---------------------------------
  C      0.093323    1.552167    0.058357
  C      0.046356    0.055946   -0.016750
  C      0.617615   -0.805442   -1.113311
  N      2.081786   -0.927990   -0.882458
  C      1.142140   -1.816006   -0.140335
  C      0.571553   -1.020067    0.991109
  O      1.091820   -0.853817    2.262576
  C     -0.905171   -0.794466    0.825346
  O     -1.530031   -0.161445    1.896348
  H      1.114261    1.924368   -0.074221
  H     -0.531929    2.001986   -0.722088
  H     -0.289983    1.897574    1.021875
  H      0.191079   -1.008014   -2.089076
  H      2.458998   -1.482150   -1.653469
  H      1.189656   -2.893580   -0.245712
  H      1.937976   -0.398089    2.184854
  H     -1.543760   -1.543319    0.357541
  H     -0.897101   -0.162590    2.627421

 Total Charge           Charge          ....    0
 Multiplicity           Mult            ....    1
 Number of Electrons    NEL             ....   68
 Basis Dimension        Dim             ....  333

ORBITAL ENERGIES
----------------

  NO   OCC          E(Eh)            E(eV)
   0   2.0000     -20.584644      -560.1366
   1   2.0000     -20.557962      -559.4106
   2   2.0000     -15.572602      -423.7520
   3   2.0000     -11.296079      -307.3819
   4   2.0000     -11.289346      -307.1987
   5   2.0000     -11.273133      -306.7575
   6   2.0000     -11.271685      -306.7181
   7   2.0000     -11.242124      -305.9137
   8   2.0000     -11.217000      -305.2301
   9   2.0000      -1.404761       -38.2255
  10   2.0000      -1.364058       -37.1179
  11   2.0000      -1.291533       -35.1444
  12   2.0000      -1.129375       -30.7319
  13   2.0000      -0.980684       -26.6858
  14   2.0000      -0.902410       -24.5558
  15   2.0000      -0.872770       -23.7493
  16   2.0000      -0.809092       -22.0165
  17   2.0000      -0.767353       -20.8807
  18   2.0000      -0.721543       -19.6342
  19   2.0000      -0.679815       -18.4987
  20   2.0000      -0.668992       -18.2042
  21   2.0000      -0.647835       -17.6285
  22   2.0000      -0.602606       -16.3977
  23   2.0000      -0.585363       -15.9285
  24   2.0000      -0.571375       -15.5479
  25   2.0000      -0.554565       -15.0905
  26   2.0000      -0.525827       -14.3085
  27   2.0000      -0.522731       -14.2242
  28   2.0000      -0.509773       -13.8716
  29   2.0000      -0.500878       -13.6296
  30   2.0000      -0.486554       -13.2398
  31   2.0000      -0.395459       -10.7610
  32   2.0000      -0.382089       -10.3972
  33   2.0000      -0.359206        -9.7745
  34   0.0000       0.131842         3.5876
  35   0.0000       0.143213         3.8970
  36   0.0000       0.164062         4.4643
  37   0.0000       0.169447         4.6109
  38   0.0000       0.194133         5.2826

MULLIKEN ATOMIC CHARGES
-----------------------
   0 C :   -0.441282
   1 C :    0.082659
   2 C :   -0.100507
   3 N :   -0.384519
   4 C :   -0.110833
   5 C :    0.115594
   6 O :   -0.495829
   7 C :    0.088362
   8 O :   -0.485724
   9 H :    0.143857
  10 H :    0.136987
  11 H :    0.138457
  12 H :    0.141683
  13 H :    0.213486
  14 H :    0.138841
  15 H :    0.348969
  16 H :    0.130953
  17 H :    0.338847
Sum of atomic charges:   -0.0000000

LOEWDIN ATOMIC CHARGES
----------------------
   0 C :   -0.272437
   1 C :   -0.183259
   2 C :   -0.189241
   3 N :    0.001359
   4 C :   -0.200887
   5 C :   -0.302565
   6 O :    0.032141
   7 C :   -0.250591
   8 O :    0.011700
   9 H :    0.131020
  10 H :    0.132017
  11 H :    0.133152
  12 H :    0.134525
  13 H :    0.169989
  14 H :    0.133791
  15 H :    0.196605
  16 H :    0.136618
  17 H :    0.186065

  Mayer bond orders larger than 0.1
B(  0-C ,  1-C ) :   0.8851 B(  0-C ,  9-H ) :   0.9441 B(  0-C , 10-H ) :   0.9347
B(  0-C , 11-H ) :   0.9289 B(  1-C ,  2-C ) :   0.8850 B(  1-C ,  5-C ) :   0.7985
B(  1-C ,  7-C ) :   0.8385 B(  2-C ,  3-N ) :   0.9545 B(  2-C ,  4-C ) :   0.8904
B(  2-C , 12-H ) :   0.9088 B(  3-N ,  4-C ) :   0.9299 B(  3-N , 13-H ) :   0.8698
B(  4-C ,  5-C ) :   0.9295 B(  4-C , 14-H ) :   0.9191 B(  5-C ,  6-O ) :   1.0339
B(  5-C ,  7-C ) :   0.8917 B(  6-O , 15-H ) :   0.8263 B(  7-C ,  8-O ) :   0.9711
B(  7-C , 16-H ) :   0.9384 B(  8-O , 17-H ) :   0.8170

MP2 TOTAL ENERGY:     -438.302511632 Eh
FINAL SINGLE POINT ENERGY      -438.302511631820

DIPOLE MOMENT
-------------
                                X             Y             Z
Electronic contribution:      0.12573      -3.09052       2.21601
Nuclear contribution   :      0.43468       2.74580      -2.81485
                        -----------------------------------------
Total Dipole Moment    :      0.56041      -0.34472      -0.59883
                        -----------------------------------------
Magnitude (a.u.)       :      0.88966
Magnitude (Debye)      :      2.26133

                             ****ORCA TERMINATED NORMALLY****
TOTAL RUN TIME: 0 days 0 hours 17 minutes 15 seconds 934 msec
