                         Program Version 3.0.3 - RELEASE   -
|  1> ! RI-MP2 RIJK def2-TZVP def2-TZVP/C def2-TZVP/JK TIGHTSCF
|  2> % maxcore 2000
|  3> % mp2 density relaxed end
|  4> *xyz 0 1
|  5>  N        0.0188870435     1.3374260774     0.1010261798
|  6>  C       -0.0159621758    -0.0332059596     0.0770128586
|  7>  N       -1.0816646855    -0.7453312399    -0.0281513742
|  8>  C       -0.6507137596    -2.1180174407     0.0162023887
|  9>  C        0.5422119487    -2.5302081596    -0.8878285443
| 10>  O        1.2603615987    -1.3852429347    -1.3253440541
| 11>  C        1.2441280929    -0.8845034978     0.0655001629
| 12>  C        0.7486122206    -2.2599879290     0.5736061332
| 13>  H        0.8665400836     1.7741328647    -0.2248608241
| 14>  H       -0.8247418426     1.7860904885    -0.2278412375
| 15>  H       -1.4001894605    -2.8729616912     0.2200964217
| 16>  H        0.5812621904    -3.4161512392    -1.5103207375
| 17>  H        2.2033419319    -0.4557588485     0.3554171914
| 18>  H        1.0919285036    -2.8514351005     1.4116511755
| 19> *
| 20>
| 21>                          ****END OF INPUT****

CARTESIAN COORDINATES (ANGSTROEM)
---------------------------------
  N      0.018887    1.337426    0.101026
  C     -0.015962   -0.033206    0.077013
  N     -1.081665   -0.745331   -0.028151
  C     -0.650714   -2.118017    0.016202
  C      0.542212   -2.530208   -0.887829
  O      1.260362   -1.385243   -1.325344
  C      1.244128   -0.884503    0.065500
  C      0.748612   -2.259988    0.573606
  H      0.866540    1.774133   -0.224861
  H     -0.824742    1.786090   -0.227841
  H     -1.400189   -2.872962    0.220096
  H      0.581262   -3.416151   -1.510321
  H      2.203342   -0.455759    0.355417
  H      1.091929   -2.851435    1.411651

 Total Charge           Charge          ....    0
 Multiplicity           Mult            ....    1
 Number of Electrons    NEL             ....   58
 Basis Dimension        Dim             ....  284

ORBITAL ENERGIES
----------------

  NO   OCC          E(Eh)            E(eV)
   0   2.0000     -20.567247      -559.6632
   1   2.0000     -15.579669      -423.9443
   2   2.0000     -15.530052      -422.5942
   3   2.0000     -11.312014      -307.8156
   4   2.0000     -11.310310      -307.7692
   5   2.0000     -11.295144      -307.3565
   6   2.0000     -11.262072      -306.4566
   7   2.0000     -11.242619      -305.9272
   8   2.0000      -1.412069       -38.4243
   9   2.0000      -1.269518       -34.5454
  10   2.0000      -1.191390       -32.4194
  11   2.0000      -1.080698       -29.4073
  12   2.0000      -0.977776       -26.6066
  13   2.0000      -0.835058       -22.7231
  14   2.0000      -0.797632       -21.7047
  15   2.0000      -0.745577       -20.2882
  16   2.0000      -0.733573       -19.9615
  17   2.0000      -0.701717       -19.0947
  18   2.0000      -0.655691       -17.8423
  19   2.0000      -0.637952       -17.3595
  20   2.0000      -0.587250       -15.9799
  21   2.0000      -0.571430       -15.5494
  22   2.0000      -0.553203       -15.0534
  23   2.0000      -0.502806       -13.6820
  24   2.0000      -0.483742       -13.1633
  25   2.0000      -0.448510       -12.2046
  26   2.0000      -0.439755       -11.9663
  27   2.0000      -0.376521       -10.2457
  28   2.0000      -0.334337        -9.0978
  29   0.0000       0.129874         3.5340
  30   0.0000       0.149300         4.0627
  31   0.0000       0.162063         4.4099
  32   0.0000       0.174527         4.7491
  33   0.0000       0.186011         5.0616

MULLIKEN ATOMIC CHARGES
-----------------------
   0 N :   -0.511583
   1 C :    0.141221
   2 N :   -0.265661
   3 C :   -0.033330
   4 C :    0.037393
   5 O :   -0.312727
   6 C :    0.099707
   7 C :   -0.241292
   8 H :    0.257951
   9 H :    0.262691
  10 H :    0.128920
  11 H :    0.138740
  12 H :    0.143573
  13 H :    0.154399
Sum of atomic charges:    0.0000000

LOEWDIN ATOMIC CHARGES
----------------------
   0 N :   -0.041595
   1 C :   -0.348740
   2 N :    0.109298
   3 C :   -0.233485
   4 C :   -0.225676
   5 O :    0.175378
   6 C :   -0.180413
   7 C :   -0.153155
   8 H :    0.172287
   9 H :    0.176389
  10 H :    0.143963
  11 H :    0.131716
  12 H :    0.137754
  13 H :    0.136278

  Mayer bond orders larger than 0.1
B(  0-N ,  1-C ) :   1.1052 B(  0-N ,  8-H ) :   0.8739 B(  0-N ,  9-H ) :   0.8649
B(  1-C ,  2-N ) :   1.7863 B(  1-C ,  6-C ) :   0.9385 B(  2-N ,  3-C ) :   1.0073
B(  3-C ,  4-C ) :   0.8279 B(  3-C ,  7-C ) :   0.8825 B(  3-C , 10-H ) :   0.9376
B(  4-C ,  5-O ) :   0.9545 B(  4-C ,  7-C ) :   0.9100 B(  4-C , 11-H ) :   0.9147
B(  5-O ,  6-C ) :   0.8549 B(  6-C ,  7-C ) :   0.9668 B(  6-C , 12-H ) :   0.8902
B(  7-C , 13-H ) :   0.8957

MP2 TOTAL ENERGY:     -378.040213018 Eh
FINAL SINGLE POINT ENERGY      -378.040213017684

DIPOLE MOMENT
-------------
                                X             Y             Z
Electronic contribution:     -0.14732      -0.07626      -0.86194
Nuclear contribution   :      0.82147       0.17164       1.13461
                        -----------------------------------------
Total Dipole Moment    :      0.67415       0.09538       0.27267
                        -----------------------------------------
Magnitude (a.u.)       :      0.73343
Magnitude (Debye)      :      1.86424

                             ****ORCA TERMINATED NORMALLY****
TOTAL RUN TIME: 0 days 0 hours 11 minutes 45 seconds 684 msec
