                         Program Version 3.0.3 - RELEASE   -
|  1> ! RI-MP2 RIJK def2-TZVP def2-TZVP/C def2-TZVP/JK TIGHTSCF
|  2> % maxcore 2000
|  3> % mp2 density relaxed end
|  4> *xyz 0 1
|  5>  C        0.0416178463    -1.1962444290    -0.0711291896
|  6>  C        0.0633964999     0.0035310502    -0.1143118224
|  7>  C        0.0573477398     1.4579513567    -0.1790767969
|  8>  O        1.3149350902     1.9649842737     0.2598633769
|  9>  C        1.3950008266     3.3416299645     0.1847584764
| 10>  C        1.6315780019     4.0579493819    -1.1177625611
| 11>  C        2.6489312067     4.1737930671    -0.0000517927
| 12>  C        2.1476577535     5.1792198482     1.0449386922
| 13>  C        0.8665691488     4.3020354408     1.2599754230
| 14>  H        0.0289865879    -2.2573583012    -0.0311095339
| 15>  H       -0.1432762640     1.7887274905    -1.2098817623
| 16>  H       -0.7561409229     1.8536049401     0.4489290725
| 17>  H        1.9352253576     3.4063724322    -1.9310672384
| 18>  H        1.0357973124     4.9181926093    -1.4174789814
| 19>  H        3.6727665527     3.8484875507    -0.1344885985
| 20>  H        2.7726170037     5.2278241031     1.9387467251
| 21>  H        1.9802004344     6.1963575686     0.6767391546
| 22>  H       -0.1038971190     4.7731941192     1.0735654014
| 23>  H        0.8548429534     3.8365189336     2.2481019052
| 24> *
| 25>
| 26>                          ****END OF INPUT****

CARTESIAN COORDINATES (ANGSTROEM)
---------------------------------
  C      0.041618   -1.196244   -0.071129
  C      0.063396    0.003531   -0.114312
  C      0.057348    1.457951   -0.179077
  O      1.314935    1.964984    0.259863
  C      1.395001    3.341630    0.184758
  C      1.631578    4.057949   -1.117763
  C      2.648931    4.173793   -0.000052
  C      2.147658    5.179220    1.044939
  C      0.866569    4.302035    1.259975
  H      0.028987   -2.257358   -0.031110
  H     -0.143276    1.788727   -1.209882
  H     -0.756141    1.853605    0.448929
  H      1.935225    3.406372   -1.931067
  H      1.035797    4.918193   -1.417479
  H      3.672767    3.848488   -0.134489
  H      2.772617    5.227824    1.938747
  H      1.980200    6.196358    0.676739
  H     -0.103897    4.773194    1.073565
  H      0.854843    3.836519    2.248102

 Total Charge           Charge          ....    0
 Multiplicity           Mult            ....    1
 Number of Electrons    NEL             ....   66
 Basis Dimension        Dim             ....  339

ORBITAL ENERGIES
----------------

  NO   OCC          E(Eh)            E(eV)
   0   2.0000     -20.572035      -559.7935
   1   2.0000     -11.309225      -307.7397
   2   2.0000     -11.288507      -307.1759
   3   2.0000     -11.235615      -305.7366
   4   2.0000     -11.232619      -305.6551
   5   2.0000     -11.229936      -305.5821
   6   2.0000     -11.228853      -305.5526
   7   2.0000     -11.228738      -305.5495
   8   2.0000     -11.227366      -305.5122
   9   2.0000      -1.396476       -38.0000
  10   2.0000      -1.185695       -32.2644
  11   2.0000      -1.053338       -28.6628
  12   2.0000      -0.990166       -26.9438
  13   2.0000      -0.952900       -25.9297
  14   2.0000      -0.886128       -24.1128
  15   2.0000      -0.804237       -21.8844
  16   2.0000      -0.743524       -20.2323
  17   2.0000      -0.727708       -19.8019
  18   2.0000      -0.703218       -19.1355
  19   2.0000      -0.669853       -18.2276
  20   2.0000      -0.659077       -17.9344
  21   2.0000      -0.619833       -16.8665
  22   2.0000      -0.610482       -16.6121
  23   2.0000      -0.573402       -15.6031
  24   2.0000      -0.540169       -14.6987
  25   2.0000      -0.527483       -14.3535
  26   2.0000      -0.503867       -13.7109
  27   2.0000      -0.472536       -12.8584
  28   2.0000      -0.462479       -12.5847
  29   2.0000      -0.403728       -10.9860
  30   2.0000      -0.394865       -10.7448
  31   2.0000      -0.387416       -10.5421
  32   2.0000      -0.375793       -10.2258
  33   0.0000       0.136930         3.7260
  34   0.0000       0.154626         4.2076
  35   0.0000       0.167850         4.5674
  36   0.0000       0.169474         4.6116
  37   0.0000       0.173001         4.7076

MULLIKEN ATOMIC CHARGES
-----------------------
   0 C :   -0.077775
   1 C :   -0.027155
   2 C :   -0.219078
   3 O :   -0.264765
   4 C :    0.167274
   5 C :   -0.295741
   6 C :   -0.137469
   7 C :   -0.222158
   8 C :   -0.253601
   9 H :    0.194075
  10 H :    0.133701
  11 H :    0.131137
  12 H :    0.137200
  13 H :    0.124305
  14 H :    0.136708
  15 H :    0.122259
  16 H :    0.112568
  17 H :    0.116762
  18 H :    0.121753
Sum of atomic charges:    0.0000000

LOEWDIN ATOMIC CHARGES
----------------------
   0 C :   -0.086799
   1 C :   -0.103685
   2 C :   -0.288838
   3 O :    0.225404
   4 C :   -0.326513
   5 C :   -0.196308
   6 C :   -0.162524
   7 C :   -0.211711
   8 C :   -0.197999
   9 H :    0.127810
  10 H :    0.141081
  11 H :    0.141249
  12 H :    0.144777
  13 H :    0.129915
  14 H :    0.138233
  15 H :    0.134134
  16 H :    0.126823
  17 H :    0.125482
  18 H :    0.139468

  Mayer bond orders larger than 0.1
B(  0-C ,  1-C ) :   2.6168 B(  0-C ,  2-C ) :  -0.1155 B(  0-C ,  9-H ) :   0.8942
B(  1-C ,  2-C ) :   1.1219 B(  2-C ,  3-O ) :   0.9316 B(  2-C , 10-H ) :   0.9233
B(  2-C , 11-H ) :   0.9159 B(  3-O ,  4-C ) :   1.0240 B(  4-C ,  5-C ) :   0.9046
B(  4-C ,  6-C ) :   0.8544 B(  4-C ,  8-C ) :   0.9370 B(  5-C ,  6-C ) :   0.8736
B(  5-C , 12-H ) :   0.9232 B(  5-C , 13-H ) :   0.9031 B(  6-C ,  7-C ) :   0.9384
B(  6-C , 14-H ) :   0.9064 B(  7-C ,  8-C ) :   0.9668 B(  7-C , 15-H ) :   0.9284
B(  7-C , 16-H ) :   0.9216 B(  8-C , 17-H ) :   0.9126 B(  8-C , 18-H ) :   0.9175

MP2 TOTAL ENERGY:     -385.117029973 Eh
FINAL SINGLE POINT ENERGY      -385.117029973189

DIPOLE MOMENT
-------------
                                X             Y             Z
Electronic contribution:     -0.21875      -6.48291      -0.28734
Nuclear contribution   :     -0.07094       6.82573       0.18389
                        -----------------------------------------
Total Dipole Moment    :     -0.28969       0.34282      -0.10346
                        -----------------------------------------
Magnitude (a.u.)       :      0.46060
Magnitude (Debye)      :      1.17075

                             ****ORCA TERMINATED NORMALLY****
TOTAL RUN TIME: 0 days 0 hours 16 minutes 53 seconds 390 msec
