                         Program Version 3.0.3 - RELEASE   -
|  1> ! RI-MP2 RIJK def2-TZVP def2-TZVP/C def2-TZVP/JK TIGHTSCF
|  2> % maxcore 2000
|  3> % mp2 density relaxed end
|  4> *xyz 0 1
|  5>  O       -0.1039326899     1.4779466032    -0.1461807742
|  6>  C        0.0018402129     0.0943796927    -0.0480401767
|  7>  C        1.0992655257    -0.5052454547    -0.9249895619
|  8>  C        2.4084505123     0.0348740886    -0.5682427146
|  9>  C        3.4547301501     0.5304959366    -0.2430105008
| 10>  C       -0.3488641563    -0.5557645314     1.2594479626
| 11>  C       -1.3112035924    -0.6504323331     0.0684463792
| 12>  C       -2.5616035757     0.0477955415     0.0819807525
| 13>  C       -3.6270536351     0.6048648182     0.0834090507
| 14>  H        0.7366007081     1.8483306413     0.1520687326
| 15>  H        1.1028979790    -1.5971332875    -0.8290733828
| 16>  H        0.8791158716    -0.2736336832    -1.9744945327
| 17>  H        4.3948837100     0.9426793384     0.0294184945
| 18>  H        0.1639780333    -1.4608691707     1.5661059245
| 19>  H       -0.6505881805     0.1073567525     2.0610158697
| 20>  H       -1.3385636890    -1.6145741445    -0.4330952504
| 21>  H       -4.5595341940     1.1120002522     0.0821479978
| 22> *
| 23>
| 24>                          ****END OF INPUT****

CARTESIAN COORDINATES (ANGSTROEM)
---------------------------------
  O     -0.103933    1.477947   -0.146181
  C      0.001840    0.094380   -0.048040
  C      1.099266   -0.505245   -0.924990
  C      2.408451    0.034874   -0.568243
  C      3.454730    0.530496   -0.243011
  C     -0.348864   -0.555765    1.259448
  C     -1.311204   -0.650432    0.068446
  C     -2.561604    0.047796    0.081981
  C     -3.627054    0.604865    0.083409
  H      0.736601    1.848331    0.152069
  H      1.102898   -1.597133   -0.829073
  H      0.879116   -0.273634   -1.974495
  H      4.394884    0.942679    0.029418
  H      0.163978   -1.460869    1.566106
  H     -0.650588    0.107357    2.061016
  H     -1.338564   -1.614574   -0.433095
  H     -4.559534    1.112000    0.082148

 Total Charge           Charge          ....    0
 Multiplicity           Mult            ....    1
 Number of Electrons    NEL             ....   64
 Basis Dimension        Dim             ....  327

ORBITAL ENERGIES
----------------

  NO   OCC          E(Eh)            E(eV)
   0   2.0000     -20.568853      -559.7069
   1   2.0000     -11.311932      -307.8133
   2   2.0000     -11.268535      -306.6324
   3   2.0000     -11.262824      -306.4770
   4   2.0000     -11.247647      -306.0640
   5   2.0000     -11.241637      -305.9005
   6   2.0000     -11.235201      -305.7254
   7   2.0000     -11.230578      -305.5996
   8   2.0000     -11.215787      -305.1971
   9   2.0000      -1.386948       -37.7408
  10   2.0000      -1.161070       -31.5943
  11   2.0000      -1.076648       -29.2971
  12   2.0000      -1.020090       -27.7581
  13   2.0000      -0.978765       -26.6335
  14   2.0000      -0.872185       -23.7333
  15   2.0000      -0.814351       -22.1596
  16   2.0000      -0.743086       -20.2204
  17   2.0000      -0.723749       -19.6942
  18   2.0000      -0.695590       -18.9280
  19   2.0000      -0.671861       -18.2823
  20   2.0000      -0.662732       -18.0339
  21   2.0000      -0.626251       -17.0411
  22   2.0000      -0.611074       -16.6282
  23   2.0000      -0.578229       -15.7344
  24   2.0000      -0.543399       -14.7866
  25   2.0000      -0.518788       -14.1169
  26   2.0000      -0.476288       -12.9604
  27   2.0000      -0.432898       -11.7798
  28   2.0000      -0.403799       -10.9879
  29   2.0000      -0.400058       -10.8861
  30   2.0000      -0.374525       -10.1913
  31   2.0000      -0.358919        -9.7667
  32   0.0000       0.125137         3.4052
  33   0.0000       0.147062         4.0018
  34   0.0000       0.161075         4.3831
  35   0.0000       0.164266         4.4699
  36   0.0000       0.171076         4.6552

MULLIKEN ATOMIC CHARGES
-----------------------
   0 O :   -0.452000
   1 C :    0.268245
   2 C :   -0.334332
   3 C :   -0.068441
   4 C :   -0.147020
   5 C :   -0.283103
   6 C :   -0.295276
   7 C :    0.010938
   8 C :   -0.139208
   9 H :    0.331251
  10 H :    0.151353
  11 H :    0.153036
  12 H :    0.193970
  13 H :    0.135552
  14 H :    0.146403
  15 H :    0.139505
  16 H :    0.189128
Sum of atomic charges:   -0.0000000

LOEWDIN ATOMIC CHARGES
----------------------
   0 O :    0.054375
   1 C :   -0.337455
   2 C :   -0.209133
   3 C :   -0.111543
   4 C :   -0.102384
   5 C :   -0.163569
   6 C :   -0.172612
   7 C :   -0.088822
   8 C :   -0.093094
   9 H :    0.190311
  10 H :    0.163761
  11 H :    0.166263
  12 H :    0.128290
  13 H :    0.136819
  14 H :    0.145911
  15 H :    0.166851
  16 H :    0.126030

  Mayer bond orders larger than 0.1
B(  0-O ,  1-C ) :   1.0287 B(  0-O ,  6-C ) :  -0.1057 B(  0-O ,  9-H ) :   0.8265
B(  1-C ,  2-C ) :   0.9024 B(  1-C ,  5-C ) :   0.8869 B(  1-C ,  6-C ) :   0.8422
B(  2-C ,  3-C ) :   1.0894 B(  2-C , 10-H ) :   0.9344 B(  2-C , 11-H ) :   0.9114
B(  3-C ,  4-C ) :   2.6066 B(  4-C , 12-H ) :   0.9036 B(  5-C ,  6-C ) :   0.8507
B(  5-C , 13-H ) :   0.9070 B(  5-C , 14-H ) :   0.9237 B(  6-C ,  7-C ) :   1.2236
B(  6-C ,  8-C ) :  -0.1292 B(  6-C , 15-H ) :   0.9237 B(  7-C ,  8-C ) :   2.5602
B(  8-C , 16-H ) :   0.8950

MP2 TOTAL ENERGY:     -383.912547586 Eh
FINAL SINGLE POINT ENERGY      -383.912547585870

DIPOLE MOMENT
-------------
                                X             Y             Z
Electronic contribution:     -0.77249       1.63543      -0.75178
Nuclear contribution   :      1.40518      -1.97708       0.93537
                        -----------------------------------------
Total Dipole Moment    :      0.63269      -0.34165       0.18359
                        -----------------------------------------
Magnitude (a.u.)       :      0.74211
Magnitude (Debye)      :      1.88630

                             ****ORCA TERMINATED NORMALLY****
TOTAL RUN TIME: 0 days 0 hours 15 minutes 24 seconds 924 msec
