                         Program Version 3.0.3 - RELEASE   -
|  1> ! RI-MP2 RIJK def2-TZVP def2-TZVP/C def2-TZVP/JK TIGHTSCF
|  2> % maxcore 2000
|  3> % mp2 density relaxed end
|  4> *xyz 0 1
|  5>  O       -0.1223732933     1.4874263856     0.5543083662
|  6>  C       -0.0107930508     0.1430410134     0.0882402626
|  7>  C        0.7363656983    -0.7552831010     1.0912062294
|  8>  C       -0.3358506866    -1.2321912936     2.1151149921
|  9>  C       -1.6946728861    -0.7341406486     1.5628614634
| 10>  C       -1.4290583179    -0.4474910707     0.0729515016
| 11>  C       -2.4720191266     0.4447378216    -0.6231278254
| 12>  C       -3.7975897922    -0.1614115918    -0.6727425642
| 13>  C       -4.8813289697    -0.6810643953    -0.7095769618
| 14>  H        0.7659152695     1.8384376312     0.6668602178
| 15>  H        0.4539444386     0.1276667387    -0.9089873700
| 16>  H        1.1761894895    -1.6073318114     0.5617284738
| 17>  H        1.5654830265    -0.2148451411     1.5600241222
| 18>  H       -0.3213735175    -2.3228508395     2.1984858494
| 19>  H       -0.1455341626    -0.8405499326     3.1173811700
| 20>  H       -2.5058049468    -1.4501561577     1.7105775115
| 21>  H       -1.9849925121     0.1984308180     2.0568896637
| 22>  H       -1.3741414458    -1.4015946769    -0.4672835607
| 23>  H       -2.5176996274     1.4077014988    -0.1034441538
| 24>  H       -2.1381515511     0.6665082064    -1.6454316936
| 25>  H       -5.8441052959    -1.1267289336    -0.7447668742
| 26> *
| 27>
| 28>                          ****END OF INPUT****

CARTESIAN COORDINATES (ANGSTROEM)
---------------------------------
  O     -0.122373    1.487426    0.554308
  C     -0.010793    0.143041    0.088240
  C      0.736366   -0.755283    1.091206
  C     -0.335851   -1.232191    2.115115
  C     -1.694673   -0.734141    1.562861
  C     -1.429058   -0.447491    0.072952
  C     -2.472019    0.444738   -0.623128
  C     -3.797590   -0.161412   -0.672743
  C     -4.881329   -0.681064   -0.709577
  H      0.765915    1.838438    0.666860
  H      0.453944    0.127667   -0.908987
  H      1.176189   -1.607332    0.561728
  H      1.565483   -0.214845    1.560024
  H     -0.321374   -2.322851    2.198486
  H     -0.145534   -0.840550    3.117381
  H     -2.505805   -1.450156    1.710578
  H     -1.984993    0.198431    2.056890
  H     -1.374141   -1.401595   -0.467284
  H     -2.517700    1.407701   -0.103444
  H     -2.138152    0.666508   -1.645432
  H     -5.844105   -1.126729   -0.744767

 Total Charge           Charge          ....    0
 Multiplicity           Mult            ....    1
 Number of Electrons    NEL             ....   68
 Basis Dimension        Dim             ....  351

ORBITAL ENERGIES
----------------

  NO   OCC          E(Eh)            E(eV)
   0   2.0000     -20.556940      -559.3828
   1   2.0000     -11.279500      -306.9308
   2   2.0000     -11.241222      -305.8892
   3   2.0000     -11.229964      -305.5829
   4   2.0000     -11.226251      -305.4818
   5   2.0000     -11.223403      -305.4043
   6   2.0000     -11.218805      -305.2792
   7   2.0000     -11.211895      -305.0912
   8   2.0000     -11.211276      -305.0743
   9   2.0000      -1.364272       -37.1237
  10   2.0000      -1.122692       -30.5500
  11   2.0000      -1.056187       -28.7403
  12   2.0000      -0.987542       -26.8724
  13   2.0000      -0.955109       -25.9898
  14   2.0000      -0.907816       -24.7029
  15   2.0000      -0.788346       -21.4520
  16   2.0000      -0.767271       -20.8785
  17   2.0000      -0.714775       -19.4500
  18   2.0000      -0.700080       -19.0501
  19   2.0000      -0.650206       -17.6930
  20   2.0000      -0.630872       -17.1669
  21   2.0000      -0.626215       -17.0402
  22   2.0000      -0.597625       -16.2622
  23   2.0000      -0.578071       -15.7301
  24   2.0000      -0.540719       -14.7137
  25   2.0000      -0.538212       -14.6455
  26   2.0000      -0.493175       -13.4200
  27   2.0000      -0.485637       -13.2149
  28   2.0000      -0.474076       -12.9003
  29   2.0000      -0.458853       -12.4860
  30   2.0000      -0.453322       -12.3355
  31   2.0000      -0.433818       -11.8048
  32   2.0000      -0.376663       -10.2495
  33   2.0000      -0.375860       -10.2277
  34   0.0000       0.124503         3.3879
  35   0.0000       0.156528         4.2593
  36   0.0000       0.158455         4.3118
  37   0.0000       0.166715         4.5365
  38   0.0000       0.174273         4.7422

MULLIKEN ATOMIC CHARGES
-----------------------
   0 O :   -0.478665
   1 C :    0.082639
   2 C :   -0.270100
   3 C :   -0.193403
   4 C :   -0.278511
   5 C :   -0.014478
   6 C :   -0.420019
   7 C :    0.013991
   8 C :   -0.141266
   9 H :    0.310018
  10 H :    0.091689
  11 H :    0.114721
  12 H :    0.112333
  13 H :    0.114756
  14 H :    0.114291
  15 H :    0.135108
  16 H :    0.116985
  17 H :    0.098848
  18 H :    0.167410
  19 H :    0.137753
  20 H :    0.185899
Sum of atomic charges:   -0.0000000

LOEWDIN ATOMIC CHARGES
----------------------
   0 O :   -0.017591
   1 C :   -0.319501
   2 C :   -0.243600
   3 C :   -0.247512
   4 C :   -0.228007
   5 C :   -0.222282
   6 C :   -0.225763
   7 C :   -0.107844
   8 C :   -0.115563
   9 H :    0.172981
  10 H :    0.130204
  11 H :    0.137748
  12 H :    0.131003
  13 H :    0.133032
  14 H :    0.133138
  15 H :    0.136760
  16 H :    0.142950
  17 H :    0.161844
  18 H :    0.164013
  19 H :    0.159369
  20 H :    0.124621

  Mayer bond orders larger than 0.1
B(  0-O ,  1-C ) :   0.9940 B(  0-O ,  9-H ) :   0.8461 B(  1-C ,  2-C ) :   0.9308
B(  1-C ,  5-C ) :   0.8764 B(  1-C , 10-H ) :   0.9392 B(  2-C ,  3-C ) :   0.9356
B(  2-C , 11-H ) :   0.9183 B(  2-C , 12-H ) :   0.9286 B(  3-C ,  4-C ) :   0.9503
B(  3-C , 13-H ) :   0.9398 B(  3-C , 14-H ) :   0.9309 B(  4-C ,  5-C ) :   0.9456
B(  4-C , 15-H ) :   0.9317 B(  4-C , 16-H ) :   0.9159 B(  5-C ,  6-C ) :   0.8889
B(  5-C , 17-H ) :   0.9222 B(  6-C ,  7-C ) :   1.0843 B(  6-C ,  8-C ) :  -0.1158
B(  6-C , 18-H ) :   0.9329 B(  6-C , 19-H ) :   0.9258 B(  7-C ,  8-C ) :   2.6106
B(  8-C , 20-H ) :   0.8991

MP2 TOTAL ENERGY:     -386.395406853 Eh
FINAL SINGLE POINT ENERGY      -386.395406852537

DIPOLE MOMENT
-------------
                                X             Y             Z
Electronic contribution:     -3.58508       2.21423      -2.76838
Nuclear contribution   :      4.41800      -2.40601       2.78917
                        -----------------------------------------
Total Dipole Moment    :      0.83292      -0.19178       0.02079
                        -----------------------------------------
Magnitude (a.u.)       :      0.85497
Magnitude (Debye)      :      2.17315

                             ****ORCA TERMINATED NORMALLY****
TOTAL RUN TIME: 0 days 0 hours 19 minutes 17 seconds 87 msec
