                         Program Version 3.0.3 - RELEASE   -
|  1> ! RI-MP2 RIJK def2-TZVP def2-TZVP/C def2-TZVP/JK TIGHTSCF
|  2> % maxcore 2000
|  3> % mp2 density relaxed end
|  4> *xyz 0 1
|  5>  O       -0.0006793777     1.4441644629    -0.1330686444
|  6>  C       -0.0107502926     0.0502594549    -0.0074819763
|  7>  C        0.1512443273    -0.5457509020     1.4296563590
|  8>  O       -1.1726247318    -1.0907378384     1.3986083102
|  9>  C       -1.4350776726    -0.5309672960     0.0971250103
| 10>  C        0.8742313485    -0.6321141594    -1.0420409778
| 11>  O        0.7118030348    -1.7469785827    -1.4625197703
| 12>  C        2.0280299006     0.1870544995    -1.4869331045
| 13>  N        2.9412876786     0.8315873900    -1.7844108940
| 14>  H        0.8935606149     1.7825168294     0.0009681099
| 15>  H        0.9181783705    -1.3174850106     1.5626605926
| 16>  H        0.2715687645     0.2432545524     2.1825085594
| 17>  H       -2.2015782347     0.2504010679     0.1170772625
| 18>  H       -1.6773911803    -1.3010418677    -0.6404868867
| 19> *
| 20>
| 21>                          ****END OF INPUT****

CARTESIAN COORDINATES (ANGSTROEM)
---------------------------------
  O     -0.000679    1.444164   -0.133069
  C     -0.010750    0.050259   -0.007482
  C      0.151244   -0.545751    1.429656
  O     -1.172625   -1.090738    1.398608
  C     -1.435078   -0.530967    0.097125
  C      0.874231   -0.632114   -1.042041
  O      0.711803   -1.746979   -1.462520
  C      2.028030    0.187054   -1.486933
  N      2.941288    0.831587   -1.784411
  H      0.893561    1.782517    0.000968
  H      0.918178   -1.317485    1.562661
  H      0.271569    0.243255    2.182509
  H     -2.201578    0.250401    0.117077
  H     -1.677391   -1.301042   -0.640487

 Total Charge           Charge          ....    0
 Multiplicity           Mult            ....    1
 Number of Electrons    NEL             ....   66
 Basis Dimension        Dim             ....  309

ORBITAL ENERGIES
----------------

  NO   OCC          E(Eh)            E(eV)
   0   2.0000     -20.620224      -561.1048
   1   2.0000     -20.610276      -560.8341
   2   2.0000     -20.579297      -559.9911
   3   2.0000     -15.628075      -425.2615
   4   2.0000     -11.413836      -310.5863
   5   2.0000     -11.345128      -308.7166
   6   2.0000     -11.317938      -307.9768
   7   2.0000     -11.315321      -307.9055
   8   2.0000     -11.309257      -307.7405
   9   2.0000      -1.466050       -39.8933
  10   2.0000      -1.431999       -38.9667
  11   2.0000      -1.400671       -38.1142
  12   2.0000      -1.263764       -34.3888
  13   2.0000      -1.066810       -29.0294
  14   2.0000      -0.975946       -26.5568
  15   2.0000      -0.961524       -26.1644
  16   2.0000      -0.819999       -22.3133
  17   2.0000      -0.788128       -21.4461
  18   2.0000      -0.725235       -19.7347
  19   2.0000      -0.725040       -19.7293
  20   2.0000      -0.685378       -18.6501
  21   2.0000      -0.657592       -17.8940
  22   2.0000      -0.623354       -16.9623
  23   2.0000      -0.614789       -16.7293
  24   2.0000      -0.600572       -16.3424
  25   2.0000      -0.591265       -16.0891
  26   2.0000      -0.569542       -15.4980
  27   2.0000      -0.540451       -14.7064
  28   2.0000      -0.514388       -13.9972
  29   2.0000      -0.508038       -13.8244
  30   2.0000      -0.487033       -13.2528
  31   2.0000      -0.462035       -12.5726
  32   2.0000      -0.449337       -12.2271
  33   0.0000       0.039009         1.0615
  34   0.0000       0.116172         3.1612
  35   0.0000       0.141786         3.8582
  36   0.0000       0.158127         4.3029
  37   0.0000       0.171930         4.6784

MULLIKEN ATOMIC CHARGES
-----------------------
   0 O :   -0.439150
   1 C :    0.216819
   2 C :   -0.047595
   3 O :   -0.317155
   4 C :   -0.041349
   5 C :    0.259504
   6 O :   -0.219215
   7 C :   -0.203607
   8 N :   -0.023096
   9 H :    0.339299
  10 H :    0.116959
  11 H :    0.109169
  12 H :    0.121330
  13 H :    0.128087
Sum of atomic charges:   -0.0000000

LOEWDIN ATOMIC CHARGES
----------------------
   0 O :    0.049014
   1 C :   -0.344518
   2 C :   -0.226591
   3 O :    0.129641
   4 C :   -0.210535
   5 C :   -0.289029
   6 O :    0.228497
   7 C :   -0.143479
   8 N :    0.105452
   9 H :    0.187785
  10 H :    0.125611
  11 H :    0.126871
  12 H :    0.131340
  13 H :    0.129942

  Mayer bond orders larger than 0.1
B(  0-O ,  1-C ) :   1.0209 B(  0-O ,  9-H ) :   0.8196 B(  1-C ,  2-C ) :   0.9178
B(  1-C ,  4-C ) :   0.9274 B(  1-C ,  5-C ) :   0.8744 B(  2-C ,  3-O ) :   0.9755
B(  2-C , 10-H ) :   0.8965 B(  2-C , 11-H ) :   0.8987 B(  3-O ,  4-C ) :   0.9568
B(  4-C , 12-H ) :   0.9031 B(  4-C , 13-H ) :   0.9034 B(  5-C ,  6-O ) :   1.9671
B(  5-C ,  7-C ) :   0.8786 B(  7-C ,  8-N ) :   2.7763

MP2 TOTAL ENERGY:     -473.050089237 Eh
FINAL SINGLE POINT ENERGY      -473.050089236639

DIPOLE MOMENT
-------------
                                X             Y             Z
Electronic contribution:      3.43962      -0.44062      -3.87528
Nuclear contribution   :     -3.58931       0.73205       4.39175
                        -----------------------------------------
Total Dipole Moment    :     -0.14969       0.29143       0.51647
                        -----------------------------------------
Magnitude (a.u.)       :      0.61162
Magnitude (Debye)      :      1.55461

                             ****ORCA TERMINATED NORMALLY****
TOTAL RUN TIME: 0 days 0 hours 14 minutes 33 seconds 809 msec
