                         Program Version 3.0.3 - RELEASE   -
|  1> ! RI-MP2 RIJK def2-TZVP def2-TZVP/C def2-TZVP/JK TIGHTSCF
|  2> % maxcore 2000
|  3> % mp2 density relaxed end
|  4> *xyz 0 1
|  5>  C       -0.0321158292     1.5659907152    -0.0052769385
|  6>  C        0.0317955389     0.0575721058    -0.0095244498
|  7>  C       -0.8020093790    -0.7557608252     0.9485457651
|  8>  C        0.7126509834    -0.7757505150     1.1026743117
|  9>  C        1.4875044080    -1.9179283659     0.4300490299
| 10>  C        1.1461731668    -1.7532646815    -1.0336024476
| 11>  C        0.3934666921    -0.6770281322    -1.2628881463
| 12>  C        1.2814340147    -0.1445262570     2.2552403391
| 13>  N        1.7480543061     0.3668284887     3.1833861200
| 14>  H        0.8870960169     2.0015251508    -0.4097238220
| 15>  H       -0.8702383735     1.9167028045    -0.6176567964
| 16>  H       -0.1703991747     1.9538931842     1.0075494295
| 17>  H       -1.3486156809    -0.2204278437     1.7177483352
| 18>  H       -1.2790222648    -1.6611063055     0.5880529667
| 19>  H        2.5650084309    -1.8180850284     0.6088344031
| 20>  H        1.1943970116    -2.8985759419     0.8240787428
| 21>  H        1.4805053090    -2.4579984650    -1.7857682638
| 22>  H        0.0397208337    -0.3486183880    -2.2337724186
| 23> *
| 24>
| 25>                          ****END OF INPUT****

CARTESIAN COORDINATES (ANGSTROEM)
---------------------------------
  C     -0.032116    1.565991   -0.005277
  C      0.031796    0.057572   -0.009524
  C     -0.802009   -0.755761    0.948546
  C      0.712651   -0.775751    1.102674
  C      1.487504   -1.917928    0.430049
  C      1.146173   -1.753265   -1.033602
  C      0.393467   -0.677028   -1.262888
  C      1.281434   -0.144526    2.255240
  N      1.748054    0.366828    3.183386
  H      0.887096    2.001525   -0.409724
  H     -0.870238    1.916703   -0.617657
  H     -0.170399    1.953893    1.007549
  H     -1.348616   -0.220428    1.717748
  H     -1.279022   -1.661106    0.588053
  H      2.565008   -1.818085    0.608834
  H      1.194397   -2.898576    0.824079
  H      1.480505   -2.457998   -1.785768
  H      0.039721   -0.348618   -2.233772

 Total Charge           Charge          ....    0
 Multiplicity           Mult            ....    1
 Number of Electrons    NEL             ....   64
 Basis Dimension        Dim             ....  333

ORBITAL ENERGIES
----------------

  NO   OCC          E(Eh)            E(eV)
   0   2.0000     -15.562561      -423.4788
   1   2.0000     -11.283016      -307.0265
   2   2.0000     -11.271791      -306.7210
   3   2.0000     -11.268973      -306.6444
   4   2.0000     -11.255534      -306.2787
   5   2.0000     -11.254401      -306.2478
   6   2.0000     -11.245936      -306.0175
   7   2.0000     -11.244206      -305.9704
   8   2.0000     -11.234005      -305.6928
   9   2.0000      -1.230799       -33.4917
  10   2.0000      -1.197414       -32.5833
  11   2.0000      -1.066549       -29.0223
  12   2.0000      -1.018579       -27.7169
  13   2.0000      -0.955089       -25.9893
  14   2.0000      -0.872980       -23.7550
  15   2.0000      -0.822710       -22.3871
  16   2.0000      -0.757244       -20.6057
  17   2.0000      -0.703174       -19.1343
  18   2.0000      -0.648460       -17.6455
  19   2.0000      -0.625176       -17.0119
  20   2.0000      -0.593893       -16.1607
  21   2.0000      -0.587962       -15.9993
  22   2.0000      -0.572899       -15.5894
  23   2.0000      -0.563927       -15.3452
  24   2.0000      -0.544507       -14.8168
  25   2.0000      -0.539171       -14.6716
  26   2.0000      -0.504978       -13.7412
  27   2.0000      -0.500111       -13.6087
  28   2.0000      -0.477829       -13.0024
  29   2.0000      -0.439965       -11.9720
  30   2.0000      -0.397724       -10.8226
  31   2.0000      -0.355954        -9.6860
  32   0.0000       0.129848         3.5333
  33   0.0000       0.134409         3.6575
  34   0.0000       0.150765         4.1025
  35   0.0000       0.166077         4.5192
  36   0.0000       0.169458         4.6112

MULLIKEN ATOMIC CHARGES
-----------------------
   0 C :   -0.408476
   1 C :    0.163889
   2 C :   -0.312032
   3 C :    0.176967
   4 C :   -0.170006
   5 C :   -0.197737
   6 C :   -0.223819
   7 C :   -0.253255
   8 N :   -0.054668
   9 H :    0.143354
  10 H :    0.140122
  11 H :    0.149706
  12 H :    0.149475
  13 H :    0.149353
  14 H :    0.141045
  15 H :    0.136186
  16 H :    0.135898
  17 H :    0.133999
Sum of atomic charges:   -0.0000000

LOEWDIN ATOMIC CHARGES
----------------------
   0 C :   -0.254646
   1 C :   -0.196282
   2 C :   -0.127362
   3 C :   -0.177218
   4 C :   -0.175792
   5 C :   -0.142127
   6 C :   -0.110732
   7 C :   -0.158531
   8 N :    0.060257
   9 H :    0.133634
  10 H :    0.132079
  11 H :    0.136984
  12 H :    0.146826
  13 H :    0.144019
  14 H :    0.153625
  15 H :    0.149906
  16 H :    0.139771
  17 H :    0.145588

  Mayer bond orders larger than 0.1
B(  0-C ,  1-C ) :   0.9119 B(  0-C ,  9-H ) :   0.9350 B(  0-C , 10-H ) :   0.9342
B(  0-C , 11-H ) :   0.9282 B(  1-C ,  2-C ) :   0.8882 B(  1-C ,  3-C ) :   0.7765
B(  1-C ,  6-C ) :   0.8997 B(  2-C ,  3-C ) :   0.8463 B(  2-C , 12-H ) :   0.9237
B(  2-C , 13-H ) :   0.9100 B(  3-C ,  4-C ) :   0.9202 B(  3-C ,  7-C ) :   0.9177
B(  4-C ,  5-C ) :   0.9670 B(  4-C , 14-H ) :   0.9076 B(  4-C , 15-H ) :   0.9071
B(  5-C ,  6-C ) :   1.8001 B(  5-C , 16-H ) :   0.9272 B(  6-C , 17-H ) :   0.9281
B(  7-C ,  8-N ) :   2.8710

MP2 TOTAL ENERGY:     -364.167443334 Eh
FINAL SINGLE POINT ENERGY      -364.167443333825

DIPOLE MOMENT
-------------
                                X             Y             Z
Electronic contribution:      2.45845      -0.88851       4.10317
Nuclear contribution   :     -3.15376       0.32352      -5.46982
                        -----------------------------------------
Total Dipole Moment    :     -0.69531      -0.56499      -1.36665
                        -----------------------------------------
Magnitude (a.u.)       :      1.63414
Magnitude (Debye)      :      4.15365

                             ****ORCA TERMINATED NORMALLY****
TOTAL RUN TIME: 0 days 0 hours 19 minutes 52 seconds 74 msec
