                         Program Version 3.0.3 - RELEASE   -
|  1> ! RI-MP2 RIJK def2-TZVP def2-TZVP/C def2-TZVP/JK TIGHTSCF
|  2> % maxcore 2000
|  3> % mp2 density relaxed end
|  4> *xyz 0 1
|  5>  C       -0.2621087517     1.5318035532     0.0973112087
|  6>  C       -0.0295294122     0.0443067276     0.0058629802
|  7>  C       -1.2619718543    -0.9118399123     0.0092418088
|  8>  C       -0.6644426428    -1.7166100713     1.2032133136
|  9>  C        0.6140842502    -0.8490805101     1.1348486047
| 10>  O        1.5874606592    -1.3675965641     0.2102575910
| 11>  C        1.1360720870    -0.4852717398    -0.8498635914
| 12>  C        1.1987171647    -0.3378322903     2.3616252040
| 13>  N        1.6303823194     0.0995685037     3.3413284752
| 14>  H        0.6699633894     2.0721240067     0.2909576243
| 15>  H       -0.6840260685     1.9107105761    -0.8412735053
| 16>  H       -0.9666205024     1.7768309959     0.8986046575
| 17>  H       -2.1988495944    -0.4054535080     0.2501918326
| 18>  H       -1.4028397705    -1.4747177399    -0.9165011595
| 19>  H       -1.2196690265    -1.5872739627     2.1346390955
| 20>  H       -0.4675215723    -2.7777872105     1.0429391690
| 21>  H        0.8722495826    -1.0368039443    -1.7593138165
| 22>  H        1.9002669130     0.2654831401    -1.0872421223
| 23> *
| 24>
| 25>                          ****END OF INPUT****

CARTESIAN COORDINATES (ANGSTROEM)
---------------------------------
  C     -0.262109    1.531804    0.097311
  C     -0.029529    0.044307    0.005863
  C     -1.261972   -0.911840    0.009242
  C     -0.664443   -1.716610    1.203213
  C      0.614084   -0.849081    1.134849
  O      1.587461   -1.367597    0.210258
  C      1.136072   -0.485272   -0.849864
  C      1.198717   -0.337832    2.361625
  N      1.630382    0.099569    3.341328
  H      0.669963    2.072124    0.290958
  H     -0.684026    1.910711   -0.841274
  H     -0.966621    1.776831    0.898605
  H     -2.198850   -0.405454    0.250192
  H     -1.402840   -1.474718   -0.916501
  H     -1.219669   -1.587274    2.134639
  H     -0.467522   -2.777787    1.042939
  H      0.872250   -1.036804   -1.759314
  H      1.900267    0.265483   -1.087242

 Total Charge           Charge          ....    0
 Multiplicity           Mult            ....    1
 Number of Electrons    NEL             ....   66
 Basis Dimension        Dim             ....  333

ORBITAL ENERGIES
----------------

  NO   OCC          E(Eh)            E(eV)
   0   2.0000     -20.577413      -559.9399
   1   2.0000     -15.576531      -423.8589
   2   2.0000     -11.334302      -308.4220
   3   2.0000     -11.298524      -307.4485
   4   2.0000     -11.273470      -306.7667
   5   2.0000     -11.270445      -306.6844
   6   2.0000     -11.251742      -306.1755
   7   2.0000     -11.248854      -306.0969
   8   2.0000     -11.239478      -305.8417
   9   2.0000      -1.411045       -38.3965
  10   2.0000      -1.220248       -33.2046
  11   2.0000      -1.143486       -31.1158
  12   2.0000      -1.035986       -28.1906
  13   2.0000      -0.968498       -26.3542
  14   2.0000      -0.924029       -25.1441
  15   2.0000      -0.865657       -23.5557
  16   2.0000      -0.797786       -21.7088
  17   2.0000      -0.693103       -18.8603
  18   2.0000      -0.682872       -18.5819
  19   2.0000      -0.662131       -18.0175
  20   2.0000      -0.622208       -16.9311
  21   2.0000      -0.602979       -16.4079
  22   2.0000      -0.585090       -15.9211
  23   2.0000      -0.581880       -15.8338
  24   2.0000      -0.565327       -15.3833
  25   2.0000      -0.550080       -14.9684
  26   2.0000      -0.530842       -14.4449
  27   2.0000      -0.497537       -13.5387
  28   2.0000      -0.483118       -13.1463
  29   2.0000      -0.473955       -12.8970
  30   2.0000      -0.461487       -12.5577
  31   2.0000      -0.437007       -11.8916
  32   2.0000      -0.414428       -11.2772
  33   0.0000       0.118644         3.2285
  34   0.0000       0.134906         3.6710
  35   0.0000       0.152255         4.1431
  36   0.0000       0.158860         4.3228
  37   0.0000       0.169976         4.6253

MULLIKEN ATOMIC CHARGES
-----------------------
   0 C :   -0.416014
   1 C :    0.018394
   2 C :   -0.228388
   3 C :   -0.229201
   4 C :    0.319466
   5 O :   -0.308936
   6 C :   -0.031738
   7 C :   -0.241500
   8 N :   -0.041815
   9 H :    0.148955
  10 H :    0.143786
  11 H :    0.141570
  12 H :    0.124938
  13 H :    0.122787
  14 H :    0.139463
  15 H :    0.130197
  16 H :    0.102986
  17 H :    0.105051
Sum of atomic charges:   -0.0000000

LOEWDIN ATOMIC CHARGES
----------------------
   0 C :   -0.269016
   1 C :   -0.214410
   2 C :   -0.185352
   3 C :   -0.172751
   4 C :   -0.267229
   5 O :    0.180456
   6 C :   -0.212140
   7 C :   -0.141805
   8 N :    0.079088
   9 H :    0.134264
  10 H :    0.134437
  11 H :    0.133412
  12 H :    0.136503
  13 H :    0.134124
  14 H :    0.143243
  15 H :    0.140168
  16 H :    0.121742
  17 H :    0.125266

  Mayer bond orders larger than 0.1
B(  0-C ,  1-C ) :   0.9004 B(  0-C ,  9-H ) :   0.9367 B(  0-C , 10-H ) :   0.9285
B(  0-C , 11-H ) :   0.9331 B(  1-C ,  2-C ) :   0.9243 B(  1-C ,  4-C ) :   0.8691
B(  1-C ,  6-C ) :   0.9932 B(  2-C ,  3-C ) :   0.9911 B(  2-C , 12-H ) :   0.9143
B(  2-C , 13-H ) :   0.9085 B(  3-C ,  4-C ) :   0.9060 B(  3-C , 14-H ) :   0.9043
B(  3-C , 15-H ) :   0.9077 B(  4-C ,  5-O ) :   0.9795 B(  4-C ,  7-C ) :   0.9304
B(  5-O ,  6-C ) :   0.9325 B(  6-C , 16-H ) :   0.9022 B(  6-C , 17-H ) :   0.9093
B(  7-C ,  8-N ) :   2.8540

MP2 TOTAL ENERGY:     -401.238817705 Eh
FINAL SINGLE POINT ENERGY      -401.238817704648

DIPOLE MOMENT
-------------
                                X             Y             Z
Electronic contribution:      5.70037      -2.44302       5.30410
Nuclear contribution   :     -6.92434       2.54508      -6.68554
                        -----------------------------------------
Total Dipole Moment    :     -1.22397       0.10205      -1.38144
                        -----------------------------------------
Magnitude (a.u.)       :      1.84848
Magnitude (Debye)      :      4.69847

                             ****ORCA TERMINATED NORMALLY****
TOTAL RUN TIME: 0 days 0 hours 18 minutes 58 seconds 997 msec
