                         Program Version 3.0.3 - RELEASE   -
|  1> ! RI-MP2 RIJK def2-TZVP def2-TZVP/C def2-TZVP/JK TIGHTSCF
|  2> % maxcore 2000
|  3> % mp2 density relaxed end
|  4> *xyz 0 1
|  5>  C        0.0750214619     1.5386189959     0.0036315483
|  6>  O        1.5449545068     1.5207917875     0.1551697181
|  7>  C        1.5310670352     0.1051654784     0.2438799669
|  8>  C        1.7364454847    -1.0953917165    -0.7680299467
|  9>  C        1.7693132439    -1.9993099928     0.5022790041
| 10>  C        1.2460962314    -0.8675377313     1.4248898202
| 11>  O       -0.1992575586    -0.6819227263     1.2640486757
| 12>  C        0.0528597026    -0.0012052072     0.0151873426
| 13>  C        0.2576344799    -0.8899145977    -1.2432039500
| 14>  H       -0.4118079669     2.0090876213     0.8629917715
| 15>  H       -0.2220466812     2.0359811145    -0.9259731687
| 16>  H        2.5338993700    -1.2240357083    -1.4985112290
| 17>  H        1.1693468271    -2.9123943089     0.4808219521
| 18>  H        2.8043042435    -2.2342915608     0.7686204077
| 19>  H        1.5591565440    -0.8333650574     2.4689524212
| 20>  H        0.1866081628    -0.3046287427    -2.1644112630
| 21>  H       -0.3708378370    -1.7789330676    -1.3298985408
| 22> *
| 23>
| 24>                          ****END OF INPUT****

CARTESIAN COORDINATES (ANGSTROEM)
---------------------------------
  C      0.075021    1.538619    0.003632
  O      1.544955    1.520792    0.155170
  C      1.531067    0.105165    0.243880
  C      1.736445   -1.095392   -0.768030
  C      1.769313   -1.999310    0.502279
  C      1.246096   -0.867538    1.424890
  O     -0.199258   -0.681923    1.264049
  C      0.052860   -0.001205    0.015187
  C      0.257634   -0.889915   -1.243204
  H     -0.411808    2.009088    0.862992
  H     -0.222047    2.035981   -0.925973
  H      2.533899   -1.224036   -1.498511
  H      1.169347   -2.912394    0.480822
  H      2.804304   -2.234292    0.768620
  H      1.559157   -0.833365    2.468952
  H      0.186608   -0.304629   -2.164411
  H     -0.370838   -1.778933   -1.329899

 Total Charge           Charge          ....    0
 Multiplicity           Mult            ....    1
 Number of Electrons    NEL             ....   66
 Basis Dimension        Dim             ....  327

ORBITAL ENERGIES
----------------

  NO   OCC          E(Eh)            E(eV)
   0   2.0000     -20.568116      -559.6869
   1   2.0000     -20.558924      -559.4368
   2   2.0000     -11.297715      -307.4264
   3   2.0000     -11.296462      -307.3924
   4   2.0000     -11.281965      -306.9979
   5   2.0000     -11.280678      -306.9628
   6   2.0000     -11.254071      -306.2388
   7   2.0000     -11.243162      -305.9420
   8   2.0000     -11.238469      -305.8143
   9   2.0000      -1.418797       -38.6074
  10   2.0000      -1.358653       -36.9708
  11   2.0000      -1.146305       -31.1925
  12   2.0000      -1.033104       -28.1122
  13   2.0000      -0.943356       -25.6700
  14   2.0000      -0.915740       -24.9186
  15   2.0000      -0.842199       -22.9174
  16   2.0000      -0.801443       -21.8084
  17   2.0000      -0.715907       -19.4808
  18   2.0000      -0.688022       -18.7220
  19   2.0000      -0.663344       -18.0505
  20   2.0000      -0.647041       -17.6069
  21   2.0000      -0.609554       -16.5868
  22   2.0000      -0.598153       -16.2766
  23   2.0000      -0.585821       -15.9410
  24   2.0000      -0.562820       -15.3151
  25   2.0000      -0.544199       -14.8084
  26   2.0000      -0.531459       -14.4617
  27   2.0000      -0.511397       -13.9158
  28   2.0000      -0.478447       -13.0192
  29   2.0000      -0.461245       -12.5511
  30   2.0000      -0.409025       -11.1301
  31   2.0000      -0.397620       -10.8198
  32   2.0000      -0.364244        -9.9116
  33   0.0000       0.142162         3.8684
  34   0.0000       0.147303         4.0083
  35   0.0000       0.164785         4.4840
  36   0.0000       0.172401         4.6913
  37   0.0000       0.180278         4.9056

MULLIKEN ATOMIC CHARGES
-----------------------
   0 C :   -0.043219
   1 O :   -0.324035
   2 C :    0.039107
   3 C :    0.003626
   4 C :   -0.249268
   5 C :    0.032011
   6 O :   -0.330631
   7 C :    0.210708
   8 C :   -0.313948
   9 H :    0.114151
  10 H :    0.107112
  11 H :    0.132405
  12 H :    0.121744
  13 H :    0.124098
  14 H :    0.123845
  15 H :    0.125698
  16 H :    0.126597
Sum of atomic charges:   -0.0000000

LOEWDIN ATOMIC CHARGES
----------------------
   0 C :   -0.191832
   1 O :    0.158734
   2 C :   -0.235263
   3 C :   -0.150516
   4 C :   -0.189994
   5 C :   -0.194689
   6 O :    0.165722
   7 C :   -0.250485
   8 C :   -0.174909
   9 H :    0.128371
  10 H :    0.122417
  11 H :    0.130744
  12 H :    0.132473
  13 H :    0.146023
  14 H :    0.127879
  15 H :    0.142149
  16 H :    0.133175

  Mayer bond orders larger than 0.1
B(  0-C ,  1-O ) :   0.9208 B(  0-C ,  7-C ) :   0.9560 B(  0-C ,  9-H ) :   0.8985
B(  0-C , 10-H ) :   0.8999 B(  1-O ,  2-C ) :   1.0173 B(  2-C ,  3-C ) :   0.8772
B(  2-C ,  5-C ) :   0.9783 B(  2-C ,  7-C ) :   0.8495 B(  3-C ,  4-C ) :   0.9259
B(  3-C ,  8-C ) :   0.8948 B(  3-C , 11-H ) :   0.9058 B(  4-C ,  5-C ) :   0.9224
B(  4-C , 12-H ) :   0.9082 B(  4-C , 13-H ) :   0.9112 B(  5-C ,  6-O ) :   0.9097
B(  5-C , 14-H ) :   0.9104 B(  6-O ,  7-C ) :   0.9589 B(  7-C ,  8-C ) :   0.9243
B(  8-C , 15-H ) :   0.9095 B(  8-C , 16-H ) :   0.9015

MP2 TOTAL ENERGY:     -421.000533356 Eh
FINAL SINGLE POINT ENERGY      -421.000533355763

DIPOLE MOMENT
-------------
                                X             Y             Z
Electronic contribution:     -0.15367       2.68536       2.20922
Nuclear contribution   :      0.20849      -3.06001      -2.66035
                        -----------------------------------------
Total Dipole Moment    :      0.05482      -0.37465      -0.45114
                        -----------------------------------------
Magnitude (a.u.)       :      0.58897
Magnitude (Debye)      :      1.49705

                             ****ORCA TERMINATED NORMALLY****
TOTAL RUN TIME: 0 days 0 hours 18 minutes 24 seconds 697 msec
