                         Program Version 3.0.3 - RELEASE   -
|  1> ! RI-MP2 RIJK def2-TZVP def2-TZVP/C def2-TZVP/JK TIGHTSCF
|  2> % maxcore 2000
|  3> % mp2 density relaxed end
|  4> *xyz 0 1
|  5>  O       -0.0490498637     1.4821102980    -0.0724065424
|  6>  C       -0.0003198256     0.0859761485    -0.0586251827
|  7>  C        0.6754176870    -0.5028184315    -1.2225139991
|  8>  C        1.2536641534    -0.9899051868    -2.1560224721
|  9>  C        0.7499263939    -0.3994318430     1.1958823014
| 10>  O        1.3527706443     0.3665804070     1.9026962719
| 11>  C        0.7007156336    -1.8387069955     1.4706803635
| 12>  N        0.6223345856    -2.9697535728     1.6967736421
| 13>  H        0.6718900707     1.7923155672     0.4964113345
| 14>  H       -1.0283011748    -0.3024973602    -0.0065324455
| 15>  H        1.7524889356    -1.4176146311    -2.9914583115
| 16> *
| 17>
| 18>                          ****END OF INPUT****

CARTESIAN COORDINATES (ANGSTROEM)
---------------------------------
  O     -0.049050    1.482110   -0.072407
  C     -0.000320    0.085976   -0.058625
  C      0.675418   -0.502818   -1.222514
  C      1.253664   -0.989905   -2.156022
  C      0.749926   -0.399432    1.195882
  O      1.352771    0.366580    1.902696
  C      0.700716   -1.838707    1.470680
  N      0.622335   -2.969754    1.696774
  H      0.671890    1.792316    0.496411
  H     -1.028301   -0.302497   -0.006532
  H      1.752489   -1.417615   -2.991458

 Total Charge           Charge          ....    0
 Multiplicity           Mult            ....    1
 Number of Electrons    NEL             ....   56
 Basis Dimension        Dim             ....  266

ORBITAL ENERGIES
----------------

  NO   OCC          E(Eh)            E(eV)
   0   2.0000     -20.629316      -561.3522
   1   2.0000     -20.598175      -560.5048
   2   2.0000     -15.628386      -425.2700
   3   2.0000     -11.422827      -310.8309
   4   2.0000     -11.366751      -309.3050
   5   2.0000     -11.314921      -307.8946
   6   2.0000     -11.267800      -306.6124
   7   2.0000     -11.263800      -306.5036
   8   2.0000      -1.477630       -40.2084
   9   2.0000      -1.409177       -38.3456
  10   2.0000      -1.262769       -34.3617
  11   2.0000      -1.106629       -30.1129
  12   2.0000      -1.026536       -27.9335
  13   2.0000      -0.927739       -25.2451
  14   2.0000      -0.798079       -21.7168
  15   2.0000      -0.774585       -21.0775
  16   2.0000      -0.735436       -20.0122
  17   2.0000      -0.713386       -19.4122
  18   2.0000      -0.670821       -18.2540
  19   2.0000      -0.613839       -16.7034
  20   2.0000      -0.609552       -16.5867
  21   2.0000      -0.589668       -16.0457
  22   2.0000      -0.527218       -14.3463
  23   2.0000      -0.515056       -14.0154
  24   2.0000      -0.508610       -13.8400
  25   2.0000      -0.503471       -13.7001
  26   2.0000      -0.431514       -11.7421
  27   2.0000      -0.423695       -11.5293
  28   0.0000       0.038294         1.0420
  29   0.0000       0.111593         3.0366
  30   0.0000       0.131400         3.5756
  31   0.0000       0.151671         4.1272
  32   0.0000       0.158471         4.3122

MULLIKEN ATOMIC CHARGES
-----------------------
   0 O :   -0.438795
   1 C :   -0.012834
   2 C :   -0.039084
   3 C :   -0.121657
   4 C :    0.338087
   5 O :   -0.242316
   6 C :   -0.156842
   7 N :   -0.027688
   8 H :    0.339834
   9 H :    0.156191
  10 H :    0.205104
Sum of atomic charges:    0.0000000

LOEWDIN ATOMIC CHARGES
----------------------
   0 O :    0.028980
   1 C :   -0.318365
   2 C :   -0.083912
   3 C :   -0.051955
   4 C :   -0.286269
   5 O :    0.214819
   6 C :   -0.124849
   7 N :    0.121292
   8 H :    0.189288
   9 H :    0.177193
  10 H :    0.133779

  Mayer bond orders larger than 0.1
B(  0-O ,  1-C ) :   1.1387 B(  0-O ,  8-H ) :   0.8070 B(  1-C ,  2-C ) :   0.8915
B(  1-C ,  4-C ) :   0.9422 B(  1-C ,  9-H ) :   0.9464 B(  2-C ,  3-C ) :   2.6841
B(  3-C , 10-H ) :   0.8981 B(  4-C ,  5-O ) :   1.9314 B(  4-C ,  6-C ) :   0.8905
B(  6-C ,  7-N ) :   2.7669

MP2 TOTAL ENERGY:     -396.708930345 Eh
FINAL SINGLE POINT ENERGY      -396.708930345294

DIPOLE MOMENT
-------------
                                X             Y             Z
Electronic contribution:      0.58805      -1.28401       2.83781
Nuclear contribution   :     -0.53722       1.53447      -3.38867
                        -----------------------------------------
Total Dipole Moment    :      0.05083       0.25045      -0.55086
                        -----------------------------------------
Magnitude (a.u.)       :      0.60725
Magnitude (Debye)      :      1.54352

                             ****ORCA TERMINATED NORMALLY****
TOTAL RUN TIME: 0 days 0 hours 8 minutes 35 seconds 835 msec
