                         Program Version 3.0.3 - RELEASE   -
|  1> ! RI-MP2 RIJK def2-TZVP def2-TZVP/C def2-TZVP/JK TIGHTSCF
|  2> % maxcore 2000
|  3> % mp2 density relaxed end
|  4> *xyz 0 1
|  5>  O       -0.0515767182     1.2909248928     0.2253287612
|  6>  C        0.0180420725    -0.0574445129     0.0733604277
|  7>  C       -0.1767347205    -0.7606043991    -1.0923272112
|  8>  N       -0.0199013304    -2.0985119454    -0.7928684848
|  9>  C        0.2780018164    -2.2685340305     0.5299471335
| 10>  C        0.3007181899    -1.0093383695     1.0893588034
| 11>  O        0.5897764628    -0.6447662063     2.3920886169
| 12>  C       -0.2419157004    -1.1021358914     3.3713484464
| 13>  O       -0.0456135051    -0.8784564555     4.5240019877
| 14>  H        0.2092393344     1.4974764488     1.1302524219
| 15>  H       -0.4126577080    -0.4211141929    -2.0858111594
| 16>  H       -0.1038315536    -2.8440984232    -1.4594445049
| 17>  H        0.4665510280    -3.2374436754     0.9601950049
| 18>  H       -1.0805197678    -1.6882884694     2.9542665367
| 19> *
| 20>
| 21>                          ****END OF INPUT****

CARTESIAN COORDINATES (ANGSTROEM)
---------------------------------
  O     -0.051577    1.290925    0.225329
  C      0.018042   -0.057445    0.073360
  C     -0.176735   -0.760604   -1.092327
  N     -0.019901   -2.098512   -0.792868
  C      0.278002   -2.268534    0.529947
  C      0.300718   -1.009338    1.089359
  O      0.589776   -0.644766    2.392089
  C     -0.241916   -1.102136    3.371348
  O     -0.045614   -0.878456    4.524002
  H      0.209239    1.497476    1.130252
  H     -0.412658   -0.421114   -2.085811
  H     -0.103832   -2.844098   -1.459445
  H      0.466551   -3.237444    0.960195
  H     -1.080520   -1.688288    2.954267

 Total Charge           Charge          ....    0
 Multiplicity           Mult            ....    1
 Number of Electrons    NEL             ....   66
 Basis Dimension        Dim             ....  309

ORBITAL ENERGIES
----------------

  NO   OCC          E(Eh)            E(eV)
   0   2.0000     -20.629001      -561.3437
   1   2.0000     -20.590032      -560.2832
   2   2.0000     -20.564349      -559.5844
   3   2.0000     -15.624736      -425.1707
   4   2.0000     -11.393887      -310.0434
   5   2.0000     -11.295737      -307.3726
   6   2.0000     -11.293235      -307.3045
   7   2.0000     -11.280777      -306.9655
   8   2.0000     -11.262766      -306.4755
   9   2.0000      -1.479732       -40.2656
  10   2.0000      -1.407989       -38.3133
  11   2.0000      -1.388585       -37.7853
  12   2.0000      -1.309398       -35.6305
  13   2.0000      -1.059752       -28.8373
  14   2.0000      -1.002461       -27.2784
  15   2.0000      -0.896072       -24.3833
  16   2.0000      -0.815743       -22.1975
  17   2.0000      -0.808773       -22.0078
  18   2.0000      -0.786003       -21.3882
  19   2.0000      -0.706090       -19.2137
  20   2.0000      -0.693747       -18.8778
  21   2.0000      -0.680759       -18.5244
  22   2.0000      -0.644695       -17.5430
  23   2.0000      -0.628630       -17.1059
  24   2.0000      -0.610715       -16.6184
  25   2.0000      -0.605683       -16.4815
  26   2.0000      -0.585525       -15.9329
  27   2.0000      -0.555841       -15.1252
  28   2.0000      -0.541272       -14.7288
  29   2.0000      -0.489034       -13.3073
  30   2.0000      -0.471311       -12.8250
  31   2.0000      -0.350078        -9.5261
  32   2.0000      -0.312738        -8.5100
  33   0.0000       0.118638         3.2283
  34   0.0000       0.135189         3.6787
  35   0.0000       0.147583         4.0160
  36   0.0000       0.149725         4.0742
  37   0.0000       0.166322         4.5259

MULLIKEN ATOMIC CHARGES
-----------------------
   0 O :   -0.439006
   1 C :    0.114969
   2 C :   -0.129567
   3 N :   -0.235121
   4 C :   -0.131444
   5 C :    0.114682
   6 O :   -0.253940
   7 C :    0.194305
   8 O :   -0.254265
   9 H :    0.342912
  10 H :    0.156337
  11 H :    0.253376
  12 H :    0.166823
  13 H :    0.099939
Sum of atomic charges:   -0.0000000

LOEWDIN ATOMIC CHARGES
----------------------
   0 O :    0.065867
   1 C :   -0.300832
   2 C :   -0.212082
   3 N :    0.180470
   4 C :   -0.228552
   5 C :   -0.287353
   6 O :    0.286936
   7 C :   -0.420394
   8 O :    0.135211
   9 H :    0.198631
  10 H :    0.137558
  11 H :    0.194629
  12 H :    0.138373
  13 H :    0.111538

  Mayer bond orders larger than 0.1
B(  0-O ,  1-C ) :   1.1235 B(  0-O ,  9-H ) :   0.8237 B(  1-C ,  2-C ) :   1.4900
B(  1-C ,  5-C ) :   1.2290 B(  2-C ,  3-N ) :   1.0935 B(  2-C , 10-H ) :   0.9071
B(  3-N ,  4-C ) :   1.1520 B(  3-N , 11-H ) :   0.8734 B(  4-C ,  5-C ) :   1.4160
B(  4-C , 12-H ) :   0.9013 B(  5-C ,  6-O ) :   0.9036 B(  6-O ,  7-C ) :   1.0014
B(  7-C ,  8-O ) :   2.0454 B(  7-C , 13-H ) :   0.9159

MP2 TOTAL ENERGY:     -473.107106906 Eh
FINAL SINGLE POINT ENERGY      -473.107106906003

DIPOLE MOMENT
-------------
                                X             Y             Z
Electronic contribution:      0.84728       1.35662       2.82618
Nuclear contribution   :     -1.18581      -2.47921      -4.17517
                        -----------------------------------------
Total Dipole Moment    :     -0.33853      -1.12259      -1.34900
                        -----------------------------------------
Magnitude (a.u.)       :      1.78734
Magnitude (Debye)      :      4.54307

                             ****ORCA TERMINATED NORMALLY****
TOTAL RUN TIME: 0 days 0 hours 12 minutes 44 seconds 142 msec
