                         Program Version 3.0.3 - RELEASE   -
|  1> ! RI-MP2 RIJK def2-TZVP def2-TZVP/C def2-TZVP/JK TIGHTSCF
|  2> % maxcore 2000
|  3> % mp2 density relaxed end
|  4> *xyz 0 1
|  5>  O       -0.9153689789     1.8297718967     0.5535701784
|  6>  C       -0.6455988675     0.4605594927     0.7803734577
|  7>  C       -1.7084995373    -0.4340150001     0.0946853648
|  8>  N       -3.0764142472    -0.0859787994     0.4706172704
|  9>  C       -3.7012316755    -0.9293139254     1.4868417321
| 10>  C       -3.0242412109    -1.0058500180     2.7906532290
| 11>  C       -2.4553727675    -1.0615916529     3.8491498569
| 12>  C       -1.5481180466    -0.3019136531    -1.3698567030
| 13>  N       -1.3780413935    -0.1431936254    -2.5020837406
| 14>  H       -0.7417082680     2.0206314032    -0.3761128573
| 15>  H        0.3601130635     0.1744861412     0.4427425831
| 16>  H       -0.7152715550     0.3035679616     1.8586575951
| 17>  H       -1.5094402073    -1.4788067126     0.3602170093
| 18>  H       -3.0977450688     0.8952475922     0.7299994446
| 19>  H       -4.7225062667    -0.5602659843     1.6332204500
| 20>  H       -3.8040217009    -1.9420913615     1.0773880789
| 21>  H       -1.9658444117    -1.1098235750     4.7907927107
| 22> *
| 23>
| 24>                          ****END OF INPUT****

CARTESIAN COORDINATES (ANGSTROEM)
---------------------------------
  O     -0.915369    1.829772    0.553570
  C     -0.645599    0.460559    0.780373
  C     -1.708500   -0.434015    0.094685
  N     -3.076414   -0.085979    0.470617
  C     -3.701232   -0.929314    1.486842
  C     -3.024241   -1.005850    2.790653
  C     -2.455373   -1.061592    3.849150
  C     -1.548118   -0.301914   -1.369857
  N     -1.378041   -0.143194   -2.502084
  H     -0.741708    2.020631   -0.376113
  H      0.360113    0.174486    0.442743
  H     -0.715272    0.303568    1.858658
  H     -1.509440   -1.478807    0.360217
  H     -3.097745    0.895248    0.729999
  H     -4.722506   -0.560266    1.633220
  H     -3.804022   -1.942091    1.077388
  H     -1.965844   -1.109824    4.790793

 Total Charge           Charge          ....    0
 Multiplicity           Mult            ....    1
 Number of Electrons    NEL             ....   66
 Basis Dimension        Dim             ....  327

ORBITAL ENERGIES
----------------

  NO   OCC          E(Eh)            E(eV)
   0   2.0000     -20.581153      -560.0417
   1   2.0000     -15.577461      -423.8843
   2   2.0000     -15.576084      -423.8468
   3   2.0000     -11.320812      -308.0549
   4   2.0000     -11.305062      -307.6264
   5   2.0000     -11.302721      -307.5627
   6   2.0000     -11.276110      -306.8386
   7   2.0000     -11.250683      -306.1466
   8   2.0000     -11.242358      -305.9201
   9   2.0000      -1.389089       -37.7990
  10   2.0000      -1.254128       -34.1266
  11   2.0000      -1.217682       -33.1348
  12   2.0000      -1.075027       -29.2530
  13   2.0000      -1.031256       -28.0619
  14   2.0000      -0.943150       -25.6644
  15   2.0000      -0.893837       -24.3225
  16   2.0000      -0.748234       -20.3605
  17   2.0000      -0.740997       -20.1635
  18   2.0000      -0.717016       -19.5110
  19   2.0000      -0.694005       -18.8848
  20   2.0000      -0.658393       -17.9158
  21   2.0000      -0.645102       -17.5541
  22   2.0000      -0.618145       -16.8206
  23   2.0000      -0.593292       -16.1443
  24   2.0000      -0.576635       -15.6910
  25   2.0000      -0.557128       -15.1602
  26   2.0000      -0.526125       -14.3166
  27   2.0000      -0.497232       -13.5304
  28   2.0000      -0.471063       -12.8183
  29   2.0000      -0.461544       -12.5593
  30   2.0000      -0.424457       -11.5501
  31   2.0000      -0.406293       -11.0558
  32   2.0000      -0.400649       -10.9022
  33   0.0000       0.119435         3.2500
  34   0.0000       0.141232         3.8431
  35   0.0000       0.143869         3.9149
  36   0.0000       0.155220         4.2237
  37   0.0000       0.159752         4.3471

MULLIKEN ATOMIC CHARGES
-----------------------
   0 O :   -0.472204
   1 C :   -0.052953
   2 C :    0.007884
   3 N :   -0.317447
   4 C :   -0.261987
   5 C :   -0.018298
   6 C :   -0.188140
   7 C :   -0.161765
   8 N :   -0.051369
   9 H :    0.331618
  10 H :    0.127618
  11 H :    0.149722
  12 H :    0.141603
  13 H :    0.235760
  14 H :    0.170113
  15 H :    0.167026
  16 H :    0.192818
Sum of atomic charges:   -0.0000000

LOEWDIN ATOMIC CHARGES
----------------------
   0 O :   -0.032466
   1 C :   -0.314530
   2 C :   -0.300860
   3 N :    0.034217
   4 C :   -0.296215
   5 C :   -0.122271
   6 C :   -0.100736
   7 C :   -0.175913
   8 N :    0.061447
   9 H :    0.183381
  10 H :    0.127450
  11 H :    0.138896
  12 H :    0.175751
  13 H :    0.181648
  14 H :    0.156844
  15 H :    0.154495
  16 H :    0.128864

  Mayer bond orders larger than 0.1
B(  0-O ,  1-C ) :   0.9033 B(  0-O ,  2-C ) :   0.1221 B(  0-O ,  9-H ) :   0.8354
B(  1-C ,  2-C ) :   0.9202 B(  1-C , 10-H ) :   0.9265 B(  1-C , 11-H ) :   0.9243
B(  2-C ,  3-N ) :   0.9282 B(  2-C ,  7-C ) :   0.9148 B(  2-C , 12-H ) :   0.9027
B(  3-N ,  4-C ) :   0.9726 B(  3-N , 13-H ) :   0.8677 B(  4-C ,  5-C ) :   0.8949
B(  4-C , 14-H ) :   0.9507 B(  4-C , 15-H ) :   0.9656 B(  5-C ,  6-C ) :   2.6744
B(  6-C , 16-H ) :   0.9178 B(  7-C ,  8-N ) :   2.8708

MP2 TOTAL ENERGY:     -417.253839675 Eh
FINAL SINGLE POINT ENERGY      -417.253839674527

DIPOLE MOMENT
-------------
                                X             Y             Z
Electronic contribution:      0.15484       0.27843      -3.53131
Nuclear contribution   :     -0.03611      -0.65953       4.84855
                        -----------------------------------------
Total Dipole Moment    :      0.11873      -0.38110       1.31724
                        -----------------------------------------
Magnitude (a.u.)       :      1.37639
Magnitude (Debye)      :      3.49850

                             ****ORCA TERMINATED NORMALLY****
TOTAL RUN TIME: 0 days 0 hours 16 minutes 5 seconds 539 msec
