                         Program Version 3.0.3 - RELEASE   -
|  1> ! RI-MP2 RIJK def2-TZVP def2-TZVP/C def2-TZVP/JK TIGHTSCF
|  2> % maxcore 2000
|  3> % mp2 density relaxed end
|  4> *xyz 0 1
|  5>  C        0.0004375849     1.4832592752    -0.0008319374
|  6>  C       -0.0371272248    -0.0096635503    -0.0002810435
|  7>  N       -1.0923715824    -0.7265178618    -0.0581111502
|  8>  C       -0.6632366994    -2.1424143430    -0.0316939012
|  9>  C       -1.2464929579    -2.8399520990     1.2046842799
| 10>  C       -1.1057150157    -2.8446976831    -1.3224874377
| 11>  C        0.8710637259    -2.0942772349     0.0538748557
| 12>  N        1.6397567868    -3.1049633081     0.0983567956
| 13>  N        1.1575749010    -0.7342142321     0.0680385120
| 14>  H        0.5749498460     1.8606198612    -0.8543590165
| 15>  H       -1.0179300617     1.8670360187    -0.0587758853
| 16>  H        0.4759141059     1.8638562748     0.9101928417
| 17>  H       -2.3382863972    -2.8491990608     1.1474513630
| 18>  H       -0.8740604599    -3.8662330013     1.2597063709
| 19>  H       -0.9559079303    -2.3170371887     2.1204168877
| 20>  H       -0.7154895223    -2.3249575482    -2.2022839784
| 21>  H       -0.7293471168    -3.8709804921    -1.3321942579
| 22>  H       -2.1971196439    -2.8543459592    -1.3866489846
| 23>  H        2.6247217158    -2.8401567064     0.1531516353
| 24>  H        2.0814982360    -0.3381808210     0.1184289210
| 25> *
| 26>
| 27>                          ****END OF INPUT****

CARTESIAN COORDINATES (ANGSTROEM)
---------------------------------
  C      0.000438    1.483259   -0.000832
  C     -0.037127   -0.009664   -0.000281
  N     -1.092372   -0.726518   -0.058111
  C     -0.663237   -2.142414   -0.031694
  C     -1.246493   -2.839952    1.204684
  C     -1.105715   -2.844698   -1.322487
  C      0.871064   -2.094277    0.053875
  N      1.639757   -3.104963    0.098357
  N      1.157575   -0.734214    0.068039
  H      0.574950    1.860620   -0.854359
  H     -1.017930    1.867036   -0.058776
  H      0.475914    1.863856    0.910193
  H     -2.338286   -2.849199    1.147451
  H     -0.874060   -3.866233    1.259706
  H     -0.955908   -2.317037    2.120417
  H     -0.715490   -2.324958   -2.202284
  H     -0.729347   -3.870980   -1.332194
  H     -2.197120   -2.854346   -1.386649
  H      2.624722   -2.840157    0.153152
  H      2.081498   -0.338181    0.118429

 Total Charge           Charge          ....    0
 Multiplicity           Mult            ....    1
 Number of Electrons    NEL             ....   68
 Basis Dimension        Dim             ....  345

ORBITAL ENERGIES
----------------

  NO   OCC          E(Eh)            E(eV)
   0   2.0000     -15.602861      -424.5754
   1   2.0000     -15.537416      -422.7946
   2   2.0000     -15.528484      -422.5515
   3   2.0000     -11.323078      -308.1166
   4   2.0000     -11.316746      -307.9443
   5   2.0000     -11.266505      -306.5772
   6   2.0000     -11.247352      -306.0560
   7   2.0000     -11.209854      -305.0356
   8   2.0000     -11.209839      -305.0352
   9   2.0000      -1.335895       -36.3516
  10   2.0000      -1.204338       -32.7717
  11   2.0000      -1.156925       -31.4815
  12   2.0000      -1.057317       -28.7711
  13   2.0000      -0.997333       -27.1388
  14   2.0000      -0.929872       -25.3031
  15   2.0000      -0.867560       -23.6075
  16   2.0000      -0.800611       -21.7857
  17   2.0000      -0.758876       -20.6501
  18   2.0000      -0.717097       -19.5132
  19   2.0000      -0.635766       -17.3001
  20   2.0000      -0.633825       -17.2473
  21   2.0000      -0.615642       -16.7525
  22   2.0000      -0.586131       -15.9494
  23   2.0000      -0.581154       -15.8140
  24   2.0000      -0.570471       -15.5233
  25   2.0000      -0.539556       -14.6821
  26   2.0000      -0.525334       -14.2951
  27   2.0000      -0.517215       -14.0741
  28   2.0000      -0.490475       -13.3465
  29   2.0000      -0.482635       -13.1332
  30   2.0000      -0.452046       -12.3008
  31   2.0000      -0.434862       -11.8332
  32   2.0000      -0.401810       -10.9338
  33   2.0000      -0.345807        -9.4099
  34   0.0000       0.114147         3.1061
  35   0.0000       0.151307         4.1173
  36   0.0000       0.152380         4.1465
  37   0.0000       0.157700         4.2912
  38   0.0000       0.192468         5.2373

MULLIKEN ATOMIC CHARGES
-----------------------
   0 C :   -0.456235
   1 C :    0.183649
   2 N :   -0.301008
   3 C :    0.365764
   4 C :   -0.392714
   5 C :   -0.392704
   6 C :   -0.037929
   7 N :   -0.371742
   8 N :   -0.304394
   9 H :    0.147239
  10 H :    0.165861
  11 H :    0.147269
  12 H :    0.136713
  13 H :    0.143478
  14 H :    0.124976
  15 H :    0.124964
  16 H :    0.143497
  17 H :    0.136705
  18 H :    0.201811
  19 H :    0.234799
Sum of atomic charges:   -0.0000000

LOEWDIN ATOMIC CHARGES
----------------------
   0 C :   -0.267728
   1 C :   -0.339467
   2 N :    0.134999
   3 C :   -0.312731
   4 C :   -0.254782
   5 C :   -0.254800
   6 C :   -0.320422
   7 N :   -0.069372
   8 N :    0.150447
   9 H :    0.134637
  10 H :    0.143254
  11 H :    0.134631
  12 H :    0.128981
  13 H :    0.133656
  14 H :    0.127191
  15 H :    0.127190
  16 H :    0.133668
  17 H :    0.128986
  18 H :    0.157341
  19 H :    0.184321

  Mayer bond orders larger than 0.1
B(  0-C ,  1-C ) :   0.8629 B(  0-C ,  9-H ) :   0.9296 B(  0-C , 10-H ) :   0.9485
B(  0-C , 11-H ) :   0.9296 B(  1-C ,  2-N ) :   1.8953 B(  1-C ,  8-N ) :   1.0323
B(  2-N ,  3-C ) :   0.8381 B(  3-C ,  4-C ) :   0.9016 B(  3-C ,  5-C ) :   0.9017
B(  3-C ,  6-C ) :   0.8041 B(  4-C , 12-H ) :   0.9368 B(  4-C , 13-H ) :   0.9303
B(  4-C , 14-H ) :   0.9283 B(  5-C , 15-H ) :   0.9284 B(  5-C , 16-H ) :   0.9303
B(  5-C , 17-H ) :   0.9368 B(  6-C ,  7-N ) :   2.1361 B(  6-C ,  8-N ) :   1.0878
B(  7-N , 18-H ) :   0.8533 B(  8-N , 19-H ) :   0.8651

MP2 TOTAL ENERGY:     -398.684325093 Eh
FINAL SINGLE POINT ENERGY      -398.684325093091

DIPOLE MOMENT
-------------
                                X             Y             Z
Electronic contribution:      3.31686       0.89934       0.18335
Nuclear contribution   :     -2.42498       0.23785      -0.13550
                        -----------------------------------------
Total Dipole Moment    :      0.89188       1.13719       0.04785
                        -----------------------------------------
Magnitude (a.u.)       :      1.44601
Magnitude (Debye)      :      3.67546

                             ****ORCA TERMINATED NORMALLY****
TOTAL RUN TIME: 0 days 0 hours 20 minutes 48 seconds 880 msec
