                         Program Version 3.0.3 - RELEASE   -
|  1> ! RI-MP2 RIJK def2-TZVP def2-TZVP/C def2-TZVP/JK TIGHTSCF
|  2> % maxcore 2000
|  3> % mp2 density relaxed end
|  4> *xyz 0 1
|  5>  C       -0.0661496207     1.5007093198    -0.0387408621
|  6>  C       -0.0022329932     0.0088742301     0.0892063449
|  7>  O       -1.2563796212    -0.6349966890    -0.1451699220
|  8>  C       -1.2736617651    -1.7085970531     0.6860075345
|  9>  N       -0.2697686422    -1.9134028172     1.4401825201
| 10>  C        0.6596855397    -0.8499653784     1.1336845365
| 11>  C        1.2361989870    -0.7992422717    -0.2957475559
| 12>  C        1.2321971250    -1.9517455017    -1.2270472939
| 13>  O        2.0739915637    -2.1063656079    -2.0803578966
| 14>  H        0.8960056477     1.9422322094     0.2324058348
| 15>  H       -0.2995406418     1.7962290965    -1.0661585347
| 16>  H       -0.8358850214     1.9088194139     0.6231798151
| 17>  H       -2.1678264796    -2.3169253326     0.6294959333
| 18>  H        1.2814553859    -0.4924390975     1.9454483055
| 19>  H        2.1268384479    -0.1865205944    -0.3909595089
| 20>  H        0.4110972884    -2.6840916763    -1.0985908907
| 21> *
| 22>
| 23>                          ****END OF INPUT****

CARTESIAN COORDINATES (ANGSTROEM)
---------------------------------
  C     -0.066150    1.500709   -0.038741
  C     -0.002233    0.008874    0.089206
  O     -1.256380   -0.634997   -0.145170
  C     -1.273662   -1.708597    0.686008
  N     -0.269769   -1.913403    1.440183
  C      0.659686   -0.849965    1.133685
  C      1.236199   -0.799242   -0.295748
  C      1.232197   -1.951746   -1.227047
  O      2.073992   -2.106366   -2.080358
  H      0.896006    1.942232    0.232406
  H     -0.299541    1.796229   -1.066159
  H     -0.835885    1.908819    0.623180
  H     -2.167826   -2.316925    0.629496
  H      1.281455   -0.492439    1.945448
  H      2.126838   -0.186521   -0.390960
  H      0.411097   -2.684092   -1.098591

 Total Charge           Charge          ....    0
 Multiplicity           Mult            ....    1
 Number of Electrons    NEL             ....   66
 Basis Dimension        Dim             ....  321

ORBITAL ENERGIES
----------------

  NO   OCC          E(Eh)            E(eV)
   0   2.0000     -20.625691      -561.2536
   1   2.0000     -20.554759      -559.3234
   2   2.0000     -15.575017      -423.8177
   3   2.0000     -11.354375      -308.9683
   4   2.0000     -11.335994      -308.4681
   5   2.0000     -11.330679      -308.3235
   6   2.0000     -11.294585      -307.3413
   7   2.0000     -11.260506      -306.4139
   8   2.0000     -11.248456      -306.0860
   9   2.0000      -1.474754       -40.1301
  10   2.0000      -1.392921       -37.9033
  11   2.0000      -1.247938       -33.9581
  12   2.0000      -1.157109       -31.4865
  13   2.0000      -1.008263       -27.4362
  14   2.0000      -0.933360       -25.3980
  15   2.0000      -0.864991       -23.5376
  16   2.0000      -0.828729       -22.5509
  17   2.0000      -0.771080       -20.9822
  18   2.0000      -0.731054       -19.8930
  19   2.0000      -0.697180       -18.9712
  20   2.0000      -0.649124       -17.6636
  21   2.0000      -0.635573       -17.2948
  22   2.0000      -0.622103       -16.9283
  23   2.0000      -0.610027       -16.5997
  24   2.0000      -0.590270       -16.0621
  25   2.0000      -0.573148       -15.5962
  26   2.0000      -0.560832       -15.2610
  27   2.0000      -0.550233       -14.9726
  28   2.0000      -0.495054       -13.4711
  29   2.0000      -0.489251       -13.3132
  30   2.0000      -0.451202       -12.2778
  31   2.0000      -0.403181       -10.9711
  32   2.0000      -0.382585       -10.4107
  33   0.0000       0.124753         3.3947
  34   0.0000       0.125902         3.4260
  35   0.0000       0.141449         3.8490
  36   0.0000       0.163403         4.4464
  37   0.0000       0.166164         4.5216

MULLIKEN ATOMIC CHARGES
-----------------------
   0 C :   -0.401372
   1 C :    0.221615
   2 O :   -0.252223
   3 C :    0.073466
   4 N :   -0.268154
   5 C :   -0.007975
   6 C :   -0.181923
   7 C :    0.101775
   8 O :   -0.268387
   9 H :    0.138329
  10 H :    0.154308
  11 H :    0.145011
  12 H :    0.154420
  13 H :    0.152153
  14 H :    0.141221
  15 H :    0.097737
Sum of atomic charges:    0.0000000

LOEWDIN ATOMIC CHARGES
----------------------
   0 C :   -0.256702
   1 C :   -0.272976
   2 O :    0.281859
   3 C :   -0.333010
   4 N :    0.100803
   5 C :   -0.193891
   6 C :   -0.163109
   7 C :   -0.277098
   8 O :    0.129206
   9 H :    0.137903
  10 H :    0.137365
  11 H :    0.135388
  12 H :    0.137100
  13 H :    0.147992
  14 H :    0.168236
  15 H :    0.120935

  Mayer bond orders larger than 0.1
B(  0-C ,  1-C ) :   0.8982 B(  0-C ,  9-H ) :   0.9333 B(  0-C , 10-H ) :   0.9335
B(  0-C , 11-H ) :   0.9312 B(  1-C ,  2-O ) :   0.9005 B(  1-C ,  5-C ) :   0.8537
B(  1-C ,  6-C ) :   0.8005 B(  2-O ,  3-C ) :   1.0721 B(  3-C ,  4-N ) :   1.7823
B(  3-C , 12-H ) :   0.9266 B(  4-N ,  5-C ) :   0.9669 B(  5-C ,  6-C ) :   0.7911
B(  5-C , 13-H ) :   0.9187 B(  6-C ,  7-C ) :   0.9246 B(  6-C , 14-H ) :   0.9144
B(  7-C ,  8-O ) :   1.9698 B(  7-C , 15-H ) :   0.9379

MP2 TOTAL ENERGY:     -437.162793165 Eh
FINAL SINGLE POINT ENERGY      -437.162793165231

DIPOLE MOMENT
-------------
                                X             Y             Z
Electronic contribution:     -0.25508      -5.04578      -0.77785
Nuclear contribution   :     -0.36242       6.05663       1.34343
                        -----------------------------------------
Total Dipole Moment    :     -0.61749       1.01085       0.56558
                        -----------------------------------------
Magnitude (a.u.)       :      1.31263
Magnitude (Debye)      :      3.33643

                             ****ORCA TERMINATED NORMALLY****
TOTAL RUN TIME: 0 days 0 hours 14 minutes 44 seconds 683 msec
