                         Program Version 3.0.3 - RELEASE   -
|  1> ! RI-MP2 RIJK def2-TZVP def2-TZVP/C def2-TZVP/JK TIGHTSCF
|  2> % maxcore 2000
|  3> % mp2 density relaxed end
|  4> *xyz 0 1
|  5>  C       -0.6618788445     1.2559362837    -0.0243842198
|  6>  C        0.1337420833    -0.0343868000     0.0002543226
|  7>  N        1.3324635147    -0.0623460360    -0.9021193316
|  8>  C        2.1990340622    -0.5473343486     0.1835922667
|  9>  C        2.8918667439     0.5990555007     0.9484514776
| 10>  O        1.7169919885     0.8341708252     1.7629685181
| 11>  C        1.0466303446    -0.3115727315     1.2223454966
| 12>  C        2.8769053944    -1.8585175040    -0.0111462450
| 13>  O        2.6826218416    -2.5708443806    -0.9672746023
| 14>  H       -0.0207623434     2.0988749302     0.2431564879
| 15>  H       -1.0698710358     1.4312882828    -1.0245358175
| 16>  H       -1.4969382489     1.2124973777     0.6832790847
| 17>  H       -0.5221312566    -0.9013049892    -0.1605667010
| 18>  H        1.2682786656    -0.7543849335    -1.6433149858
| 19>  H        3.7418733742     0.2876718609     1.5703418500
| 20>  H        3.1595998800     1.4613905836     0.3319803717
| 21>  H        0.7091627499    -1.0083032525     1.9932243992
| 22>  H        3.5752838066    -2.1557804189     0.8018577477
| 23> *
| 24>
| 25>                          ****END OF INPUT****

CARTESIAN COORDINATES (ANGSTROEM)
---------------------------------
  C     -0.661879    1.255936   -0.024384
  C      0.133742   -0.034387    0.000254
  N      1.332464   -0.062346   -0.902119
  C      2.199034   -0.547334    0.183592
  C      2.891867    0.599056    0.948451
  O      1.716992    0.834171    1.762969
  C      1.046630   -0.311573    1.222345
  C      2.876905   -1.858518   -0.011146
  O      2.682622   -2.570844   -0.967275
  H     -0.020762    2.098875    0.243156
  H     -1.069871    1.431288   -1.024536
  H     -1.496938    1.212497    0.683279
  H     -0.522131   -0.901305   -0.160567
  H      1.268279   -0.754385   -1.643315
  H      3.741873    0.287672    1.570342
  H      3.159600    1.461391    0.331980
  H      0.709163   -1.008303    1.993224
  H      3.575284   -2.155780    0.801858

 Total Charge           Charge          ....    0
 Multiplicity           Mult            ....    1
 Number of Electrons    NEL             ....   68
 Basis Dimension        Dim             ....  333

ORBITAL ENERGIES
----------------

  NO   OCC          E(Eh)            E(eV)
   0   2.0000     -20.574251      -559.8538
   1   2.0000     -20.567231      -559.6628
   2   2.0000     -15.553551      -423.2336
   3   2.0000     -11.347558      -308.7828
   4   2.0000     -11.305257      -307.6317
   5   2.0000     -11.297888      -307.4312
   6   2.0000     -11.283903      -307.0506
   7   2.0000     -11.271834      -306.7222
   8   2.0000     -11.215544      -305.1905
   9   2.0000      -1.414154       -38.4811
  10   2.0000      -1.402398       -38.1612
  11   2.0000      -1.236605       -33.6497
  12   2.0000      -1.038628       -28.2625
  13   2.0000      -0.987926       -26.8828
  14   2.0000      -0.947189       -25.7743
  15   2.0000      -0.885401       -24.0930
  16   2.0000      -0.810700       -22.0603
  17   2.0000      -0.748130       -20.3577
  18   2.0000      -0.727904       -19.8073
  19   2.0000      -0.686996       -18.6941
  20   2.0000      -0.657324       -17.8867
  21   2.0000      -0.641657       -17.4604
  22   2.0000      -0.627046       -17.0628
  23   2.0000      -0.598312       -16.2809
  24   2.0000      -0.587854       -15.9963
  25   2.0000      -0.562301       -15.3010
  26   2.0000      -0.544387       -14.8135
  27   2.0000      -0.522903       -14.2289
  28   2.0000      -0.506511       -13.7829
  29   2.0000      -0.489855       -13.3296
  30   2.0000      -0.468859       -12.7583
  31   2.0000      -0.438493       -11.9320
  32   2.0000      -0.413173       -11.2430
  33   2.0000      -0.384408       -10.4603
  34   0.0000       0.101015         2.7488
  35   0.0000       0.139115         3.7855
  36   0.0000       0.148083         4.0295
  37   0.0000       0.158496         4.3129
  38   0.0000       0.184941         5.0325

MULLIKEN ATOMIC CHARGES
-----------------------
   0 C :   -0.401763
   1 C :    0.004207
   2 N :   -0.349462
   3 C :    0.039760
   4 C :   -0.011973
   5 O :   -0.338070
   6 C :    0.096081
   7 C :    0.078820
   8 O :   -0.274681
   9 H :    0.144746
  10 H :    0.133458
  11 H :    0.122397
  12 H :    0.104159
  13 H :    0.222909
  14 H :    0.099841
  15 H :    0.113956
  16 H :    0.126228
  17 H :    0.089386
Sum of atomic charges:    0.0000000

LOEWDIN ATOMIC CHARGES
----------------------
   0 C :   -0.295151
   1 C :   -0.268521
   2 N :    0.049385
   3 C :   -0.282211
   4 C :   -0.215409
   5 O :    0.145839
   6 C :   -0.195113
   7 C :   -0.266069
   8 O :    0.134710
   9 H :    0.130162
  10 H :    0.127212
  11 H :    0.126135
  12 H :    0.142575
  13 H :    0.167337
  14 H :    0.121969
  15 H :    0.126797
  16 H :    0.130242
  17 H :    0.120112

  Mayer bond orders larger than 0.1
B(  0-C ,  1-C ) :   0.9018 B(  0-C ,  9-H ) :   0.9368 B(  0-C , 10-H ) :   0.9345
B(  0-C , 11-H ) :   0.9304 B(  1-C ,  2-N ) :   0.9247 B(  1-C ,  6-C ) :   0.8922
B(  1-C , 12-H ) :   0.9145 B(  2-N ,  3-C ) :   1.0596 B(  2-N , 13-H ) :   0.8633
B(  3-C ,  4-C ) :   0.9611 B(  3-C ,  6-C ) :   0.8881 B(  3-C ,  7-C ) :   0.8862
B(  4-C ,  5-O ) :   0.9372 B(  4-C , 14-H ) :   0.9045 B(  4-C , 15-H ) :   0.9004
B(  5-O ,  6-C ) :   0.9353 B(  6-C , 16-H ) :   0.9099 B(  7-C ,  8-O ) :   1.9514
B(  7-C , 17-H ) :   0.9378

MP2 TOTAL ENERGY:     -438.320922463 Eh
FINAL SINGLE POINT ENERGY      -438.320922463203

DIPOLE MOMENT
-------------
                                X             Y             Z
Electronic contribution:      4.44379      -4.20917      -0.15275
Nuclear contribution   :     -4.52480       4.05960       0.57767
                        -----------------------------------------
Total Dipole Moment    :     -0.08102      -0.14957       0.42492
                        -----------------------------------------
Magnitude (a.u.)       :      0.45770
Magnitude (Debye)      :      1.16339

                             ****ORCA TERMINATED NORMALLY****
TOTAL RUN TIME: 0 days 0 hours 16 minutes 53 seconds 330 msec
