                         Program Version 3.0.3 - RELEASE   -
|  1> ! RI-MP2 RIJK def2-TZVP def2-TZVP/C def2-TZVP/JK TIGHTSCF
|  2> % maxcore 2000
|  3> % mp2 density relaxed end
|  4> *xyz 0 1
|  5>  C        0.4430355835     1.5378420963    -0.1354457056
|  6>  C        0.0017304847     0.0730741562     0.0404917805
|  7>  C        0.2703713072    -0.7146677427    -1.2480454517
|  8>  C        0.6680799427    -0.5316128595     1.2811664908
|  9>  C        0.1940080523     0.0087769608     2.6167769382
| 10>  C        1.2841215111    -1.8693936719     1.2674837872
| 11>  O        2.0945554554    -0.6936234116     1.1831895506
| 12>  H        1.5271349625     1.5905422357    -0.2775776806
| 13>  H       -0.0380667812     1.9806225889    -1.0128508280
| 14>  H        0.1855377990     2.1564532298     0.7285591917
| 15>  H       -1.0808325076     0.0618762131     0.2292847713
| 16>  H        1.3468758732    -0.8180953040    -1.4192727335
| 17>  H       -0.1730204328    -1.7142558620    -1.2191643762
| 18>  H       -0.1563729915    -0.1897304312    -2.1080504149
| 19>  H       -0.8713998304    -0.2015253038     2.7613377025
| 20>  H        0.7526305802    -0.4533342647     3.4342507954
| 21>  H        0.3346446153     1.0913468619     2.6851525308
| 22>  H        1.3649477543    -2.4236667481     2.2027230675
| 23>  H        1.2657006623    -2.4864220730     0.3731019040
| 24> *
| 25>
| 26>                          ****END OF INPUT****

CARTESIAN COORDINATES (ANGSTROEM)
---------------------------------
  C      0.443036    1.537842   -0.135446
  C      0.001730    0.073074    0.040492
  C      0.270371   -0.714668   -1.248045
  C      0.668080   -0.531613    1.281166
  C      0.194008    0.008777    2.616777
  C      1.284122   -1.869394    1.267484
  O      2.094555   -0.693623    1.183190
  H      1.527135    1.590542   -0.277578
  H     -0.038067    1.980623   -1.012851
  H      0.185538    2.156453    0.728559
  H     -1.080833    0.061876    0.229285
  H      1.346876   -0.818095   -1.419273
  H     -0.173020   -1.714256   -1.219164
  H     -0.156373   -0.189730   -2.108050
  H     -0.871400   -0.201525    2.761338
  H      0.752631   -0.453334    3.434251
  H      0.334645    1.091347    2.685153
  H      1.364948   -2.423667    2.202723
  H      1.265701   -2.486422    0.373102

 Total Charge           Charge          ....    0
 Multiplicity           Mult            ....    1
 Number of Electrons    NEL             ....   56
 Basis Dimension        Dim             ....  289

ORBITAL ENERGIES
----------------

  NO   OCC          E(Eh)            E(eV)
   0   2.0000     -20.557820      -559.4067
   1   2.0000     -11.287309      -307.1433
   2   2.0000     -11.273969      -306.7803
   3   2.0000     -11.234454      -305.7050
   4   2.0000     -11.220723      -305.3314
   5   2.0000     -11.213053      -305.1227
   6   2.0000     -11.211442      -305.0789
   7   2.0000      -1.402202       -38.1559
   8   2.0000      -1.080170       -29.3929
   9   2.0000      -0.995649       -27.0930
  10   2.0000      -0.933621       -25.4051
  11   2.0000      -0.896969       -24.4078
  12   2.0000      -0.845672       -23.0119
  13   2.0000      -0.748490       -20.3674
  14   2.0000      -0.685303       -18.6480
  15   2.0000      -0.638852       -17.3841
  16   2.0000      -0.617938       -16.8150
  17   2.0000      -0.581887       -15.8340
  18   2.0000      -0.568669       -15.4743
  19   2.0000      -0.563145       -15.3240
  20   2.0000      -0.538180       -14.6446
  21   2.0000      -0.529145       -14.3988
  22   2.0000      -0.517734       -14.0883
  23   2.0000      -0.492073       -13.3900
  24   2.0000      -0.478362       -13.0169
  25   2.0000      -0.471182       -12.8215
  26   2.0000      -0.430499       -11.7145
  27   2.0000      -0.416508       -11.3338
  28   0.0000       0.137697         3.7469
  29   0.0000       0.162060         4.4099
  30   0.0000       0.170663         4.6440
  31   0.0000       0.175704         4.7811
  32   0.0000       0.196468         5.3462

MULLIKEN ATOMIC CHARGES
-----------------------
   0 C :   -0.442685
   1 C :    0.022318
   2 C :   -0.442172
   3 C :    0.195877
   4 C :   -0.438419
   5 C :   -0.082148
   6 O :   -0.352338
   7 H :    0.147323
   8 H :    0.130926
   9 H :    0.126333
  10 H :    0.083963
  11 H :    0.150191
  12 H :    0.129549
  13 H :    0.135065
  14 H :    0.131940
  15 H :    0.139537
  16 H :    0.137237
  17 H :    0.110212
  18 H :    0.117291
Sum of atomic charges:    0.0000000

LOEWDIN ATOMIC CHARGES
----------------------
   0 C :   -0.286826
   1 C :   -0.268468
   2 C :   -0.292750
   3 C :   -0.326880
   4 C :   -0.266785
   5 C :   -0.249038
   6 O :    0.158056
   7 H :    0.130393
   8 H :    0.122793
   9 H :    0.120153
  10 H :    0.155880
  11 H :    0.130442
  12 H :    0.120470
  13 H :    0.124703
  14 H :    0.129856
  15 H :    0.131557
  16 H :    0.127627
  17 H :    0.118976
  18 H :    0.119842

  Mayer bond orders larger than 0.1
B(  0-C ,  1-C ) :   0.8998 B(  0-C ,  7-H ) :   0.9335 B(  0-C ,  8-H ) :   0.9400
B(  0-C ,  9-H ) :   0.9376 B(  1-C ,  2-C ) :   0.9042 B(  1-C ,  3-C ) :   0.9140
B(  1-C , 10-H ) :   0.9244 B(  2-C , 11-H ) :   0.9341 B(  2-C , 12-H ) :   0.9388
B(  2-C , 13-H ) :   0.9399 B(  3-C ,  4-C ) :   0.8903 B(  3-C ,  5-C ) :   0.9821
B(  3-C ,  6-O ) :   0.8204 B(  4-C , 14-H ) :   0.9367 B(  4-C , 15-H ) :   0.9381
B(  4-C , 16-H ) :   0.9397 B(  5-C ,  6-O ) :   0.9082 B(  5-C , 17-H ) :   0.9145
B(  5-C , 18-H ) :   0.9017

MP2 TOTAL ENERGY:     -310.374919758 Eh
FINAL SINGLE POINT ENERGY      -310.374919757541

DIPOLE MOMENT
-------------
                                X             Y             Z
Electronic contribution:      3.22669      -2.30576       2.05769
Nuclear contribution   :     -3.93214       2.10128      -2.02052
                        -----------------------------------------
Total Dipole Moment    :     -0.70545      -0.20448       0.03717
                        -----------------------------------------
Magnitude (a.u.)       :      0.73543
Magnitude (Debye)      :      1.86931

                             ****ORCA TERMINATED NORMALLY****
TOTAL RUN TIME: 0 days 0 hours 9 minutes 50 seconds 228 msec
