                         Program Version 3.0.3 - RELEASE   -
|  1> ! RI-MP2 RIJK def2-TZVP def2-TZVP/C def2-TZVP/JK TIGHTSCF
|  2> % maxcore 2000
|  3> % mp2 density relaxed end
|  4> *xyz 0 1
|  5>  C        0.3018584665     1.0849886638    -0.6494540549
|  6>  N       -0.0117010869     0.0253420694     0.3064179978
|  7>  C       -0.9797956151     0.3598162614     1.3458005002
|  8>  C       -1.3516666531    -0.5409292109     0.2197889286
|  9>  C        1.4782307558     1.8963490599    -0.1902010532
| 10>  C        2.8256454176     1.3429661449     0.3048962741
| 11>  C        2.9321729828     2.5593471350     1.2848935968
| 12>  C        1.5875622904     3.0699175609     0.7496986593
| 13>  N        1.6273508524     3.2558956127    -0.6988964837
| 14>  H        0.5390212145     0.6052058085    -1.6089373046
| 15>  H       -0.5481037708     1.7654473977    -0.8291803406
| 16>  H       -0.7765358150    -0.0441933950     2.3334630347
| 17>  H       -1.4060406784     1.3618514481     1.3418239715
| 18>  H       -2.0274851265    -0.1387385516    -0.5336652594
| 19>  H       -1.4238608946    -1.6146625149     0.3686465285
| 20>  H        2.7175485184     0.3926558039     0.8298789117
| 21>  H        3.6039752957     1.2415978064    -0.4596706845
| 22>  H        2.8925331831     2.2509286567     2.3322589439
| 23>  H        3.7812527623     3.2390377393     1.1530512793
| 24>  H        0.8253289801     3.6045812834     1.3061454319
| 25>  H        2.5668686307     3.4487986404    -1.0435338676
| 26> *
| 27>
| 28>                          ****END OF INPUT****

CARTESIAN COORDINATES (ANGSTROEM)
---------------------------------
  C      0.301858    1.084989   -0.649454
  N     -0.011701    0.025342    0.306418
  C     -0.979796    0.359816    1.345801
  C     -1.351667   -0.540929    0.219789
  C      1.478231    1.896349   -0.190201
  C      2.825645    1.342966    0.304896
  C      2.932173    2.559347    1.284894
  C      1.587562    3.069918    0.749699
  N      1.627351    3.255896   -0.698896
  H      0.539021    0.605206   -1.608937
  H     -0.548104    1.765447   -0.829180
  H     -0.776536   -0.044193    2.333463
  H     -1.406041    1.361851    1.341824
  H     -2.027485   -0.138739   -0.533665
  H     -1.423861   -1.614663    0.368647
  H      2.717549    0.392656    0.829879
  H      3.603975    1.241598   -0.459671
  H      2.892533    2.250929    2.332259
  H      3.781253    3.239038    1.153051
  H      0.825329    3.604581    1.306145
  H      2.566869    3.448799   -1.043534

 Total Charge           Charge          ....    0
 Multiplicity           Mult            ....    1
 Number of Electrons    NEL             ....   68
 Basis Dimension        Dim             ....  351

ORBITAL ENERGIES
----------------

  NO   OCC          E(Eh)            E(eV)
   0   2.0000     -15.558334      -423.3638
   1   2.0000     -15.552427      -423.2031
   2   2.0000     -11.257762      -306.3393
   3   2.0000     -11.253420      -306.2211
   4   2.0000     -11.253176      -306.2145
   5   2.0000     -11.252647      -306.2001
   6   2.0000     -11.251919      -306.1803
   7   2.0000     -11.227832      -305.5249
   8   2.0000     -11.223188      -305.3985
   9   2.0000      -1.285239       -34.9731
  10   2.0000      -1.267986       -34.5036
  11   2.0000      -1.038873       -28.2692
  12   2.0000      -1.013552       -27.5802
  13   2.0000      -0.889393       -24.2016
  14   2.0000      -0.856474       -23.3058
  15   2.0000      -0.840992       -22.8846
  16   2.0000      -0.813479       -22.1359
  17   2.0000      -0.725764       -19.7490
  18   2.0000      -0.685331       -18.6488
  19   2.0000      -0.667720       -18.1696
  20   2.0000      -0.641517       -17.4566
  21   2.0000      -0.628738       -17.1088
  22   2.0000      -0.606397       -16.5009
  23   2.0000      -0.579100       -15.7581
  24   2.0000      -0.536434       -14.5971
  25   2.0000      -0.526106       -14.3161
  26   2.0000      -0.486670       -13.2430
  27   2.0000      -0.483288       -13.1509
  28   2.0000      -0.468332       -12.7440
  29   2.0000      -0.451615       -12.2891
  30   2.0000      -0.439188       -11.9509
  31   2.0000      -0.417076       -11.3492
  32   2.0000      -0.377814       -10.2808
  33   2.0000      -0.375912       -10.2291
  34   0.0000       0.145981         3.9723
  35   0.0000       0.153566         4.1787
  36   0.0000       0.158777         4.3206
  37   0.0000       0.177837         4.8392
  38   0.0000       0.178880         4.8676

MULLIKEN ATOMIC CHARGES
-----------------------
   0 C :   -0.118796
   1 N :   -0.236873
   2 C :   -0.188237
   3 C :   -0.171613
   4 C :    0.104971
   5 C :   -0.253089
   6 C :   -0.198363
   7 C :   -0.142635
   8 N :   -0.341545
   9 H :    0.117248
  10 H :    0.115754
  11 H :    0.127320
  12 H :    0.123146
  13 H :    0.120219
  14 H :    0.129101
  15 H :    0.132839
  16 H :    0.112917
  17 H :    0.115049
  18 H :    0.115263
  19 H :    0.125877
  20 H :    0.211447
Sum of atomic charges:   -0.0000000

LOEWDIN ATOMIC CHARGES
----------------------
   0 C :   -0.260549
   1 N :    0.094303
   2 C :   -0.270334
   3 C :   -0.270722
   4 C :   -0.270848
   5 C :   -0.201680
   6 C :   -0.228610
   7 C :   -0.224824
   8 N :    0.045054
   9 H :    0.141673
  10 H :    0.135881
  11 H :    0.123215
  12 H :    0.122342
  13 H :    0.122695
  14 H :    0.123695
  15 H :    0.140483
  16 H :    0.125082
  17 H :    0.135033
  18 H :    0.124501
  19 H :    0.129148
  20 H :    0.164463

  Mayer bond orders larger than 0.1
B(  0-C ,  1-N ) :   0.8682 B(  0-C ,  4-C ) :   0.8921 B(  0-C ,  9-H ) :   0.9076
B(  0-C , 10-H ) :   0.9246 B(  1-N ,  2-C ) :   0.8878 B(  1-N ,  3-C ) :   0.8938
B(  2-C ,  3-C ) :   0.9458 B(  2-C , 11-H ) :   0.9295 B(  2-C , 12-H ) :   0.9229
B(  3-C , 13-H ) :   0.9241 B(  3-C , 14-H ) :   0.9261 B(  4-C ,  5-C ) :   0.9392
B(  4-C ,  7-C ) :   0.8364 B(  4-C ,  8-N ) :   0.9454 B(  5-C ,  6-C ) :   0.9559
B(  5-C , 15-H ) :   0.9115 B(  5-C , 16-H ) :   0.9223 B(  6-C ,  7-C ) :   0.9156
B(  6-C , 17-H ) :   0.9140 B(  6-C , 18-H ) :   0.9246 B(  7-C ,  8-N ) :   0.9524
B(  7-C , 19-H ) :   0.9215 B(  8-N , 20-H ) :   0.8655

MP2 TOTAL ENERGY:     -382.515609006 Eh
FINAL SINGLE POINT ENERGY      -382.515609005756

DIPOLE MOMENT
-------------
                                X             Y             Z
Electronic contribution:      0.37190       1.05036      -1.28034
Nuclear contribution   :     -0.35212      -1.16110       1.55029
                        -----------------------------------------
Total Dipole Moment    :      0.01979      -0.11075       0.26994
                        -----------------------------------------
Magnitude (a.u.)       :      0.29245
Magnitude (Debye)      :      0.74334

                             ****ORCA TERMINATED NORMALLY****
TOTAL RUN TIME: 0 days 0 hours 17 minutes 20 seconds 776 msec
