                         Program Version 3.0.3 - RELEASE   -
|  1> ! RI-MP2 RIJK def2-TZVP def2-TZVP/C def2-TZVP/JK TIGHTSCF
|  2> % maxcore 2000
|  3> % mp2 density relaxed end
|  4> *xyz 0 1
|  5>  C        0.0619234829     1.5997528651    -0.0313808791
|  6>  C        0.0869106870     0.0878932226    -0.1258945235
|  7>  C        1.2815590551    -0.6066824230    -0.8364290655
|  8>  C        1.2116092520    -1.7222505839     0.2426917766
|  9>  C        0.4093898448    -0.7449955846     1.1456319182
| 10>  C        0.3791272322    -2.9198315262    -0.2071921813
| 11>  N       -0.9360617567    -2.6834406993    -0.7694034791
| 12>  C       -1.5119402000    -1.5753837351    -0.9455032803
| 13>  O       -1.1746563066    -0.2805246504    -0.7067421334
| 14>  H        0.9945187862     1.9681395122     0.4046426423
| 15>  H       -0.0583856614     2.0451342060    -1.0236889051
| 16>  H       -0.7709287801     1.9321162834     0.5958404269
| 17>  H        1.1312745820    -0.8927394662    -1.8806476369
| 18>  H        2.1892473486    -0.0029323001    -0.7571754554
| 19>  H        2.1679416339    -2.0753762510     0.6388653483
| 20>  H        1.0510496218    -0.1834309023     1.8294536357
| 21>  H       -0.4444487608    -1.1426244439     1.7003003209
| 22>  H        0.9465491883    -3.4922235960    -0.9550500128
| 23>  H        0.2434042610    -3.6037459606     0.6429440742
| 24>  H       -2.5103726302    -1.5701735468    -1.3844294006
| 25> *
| 26>
| 27>                          ****END OF INPUT****

CARTESIAN COORDINATES (ANGSTROEM)
---------------------------------
  C      0.061923    1.599753   -0.031381
  C      0.086911    0.087893   -0.125895
  C      1.281559   -0.606682   -0.836429
  C      1.211609   -1.722251    0.242692
  C      0.409390   -0.744996    1.145632
  C      0.379127   -2.919832   -0.207192
  N     -0.936062   -2.683441   -0.769403
  C     -1.511940   -1.575384   -0.945503
  O     -1.174656   -0.280525   -0.706742
  H      0.994519    1.968140    0.404643
  H     -0.058386    2.045134   -1.023689
  H     -0.770929    1.932116    0.595840
  H      1.131275   -0.892739   -1.880648
  H      2.189247   -0.002932   -0.757175
  H      2.167942   -2.075376    0.638865
  H      1.051050   -0.183431    1.829454
  H     -0.444449   -1.142624    1.700300
  H      0.946549   -3.492224   -0.955050
  H      0.243404   -3.603746    0.642944
  H     -2.510373   -1.570174   -1.384429

 Total Charge           Charge          ....    0
 Multiplicity           Mult            ....    1
 Number of Electrons    NEL             ....   68
 Basis Dimension        Dim             ....  345

ORBITAL ENERGIES
----------------

  NO   OCC          E(Eh)            E(eV)
   0   2.0000     -20.586052      -560.1749
   1   2.0000     -15.538149      -422.8145
   2   2.0000     -11.326406      -308.2072
   3   2.0000     -11.299343      -307.4708
   4   2.0000     -11.252127      -306.1859
   5   2.0000     -11.234023      -305.6933
   6   2.0000     -11.226487      -305.4882
   7   2.0000     -11.226460      -305.4875
   8   2.0000     -11.220962      -305.3379
   9   2.0000      -1.416549       -38.5463
  10   2.0000      -1.210295       -32.9338
  11   2.0000      -1.145341       -31.1663
  12   2.0000      -1.005706       -27.3666
  13   2.0000      -0.960272       -26.1303
  14   2.0000      -0.916423       -24.9371
  15   2.0000      -0.875588       -23.8260
  16   2.0000      -0.773992       -21.0614
  17   2.0000      -0.712645       -19.3920
  18   2.0000      -0.701575       -19.0908
  19   2.0000      -0.665963       -18.1218
  20   2.0000      -0.633149       -17.2288
  21   2.0000      -0.625002       -17.0072
  22   2.0000      -0.614895       -16.7321
  23   2.0000      -0.573585       -15.6081
  24   2.0000      -0.556984       -15.1563
  25   2.0000      -0.549992       -14.9660
  26   2.0000      -0.541540       -14.7361
  27   2.0000      -0.532425       -14.4880
  28   2.0000      -0.490327       -13.3425
  29   2.0000      -0.458418       -12.4742
  30   2.0000      -0.447464       -12.1761
  31   2.0000      -0.433784       -11.8039
  32   2.0000      -0.393374       -10.7042
  33   2.0000      -0.378293       -10.2939
  34   0.0000       0.130942         3.5631
  35   0.0000       0.149938         4.0800
  36   0.0000       0.167837         4.5671
  37   0.0000       0.172836         4.7031
  38   0.0000       0.190183         5.1751

MULLIKEN ATOMIC CHARGES
-----------------------
   0 C :   -0.412166
   1 C :    0.287289
   2 C :   -0.317802
   3 C :   -0.023372
   4 C :   -0.317800
   5 C :   -0.155181
   6 N :   -0.273860
   7 C :    0.057636
   8 O :   -0.260604
   9 H :    0.123962
  10 H :    0.139222
  11 H :    0.139220
  12 H :    0.133870
  13 H :    0.123799
  14 H :    0.108592
  15 H :    0.123799
  16 H :    0.133871
  17 H :    0.128186
  18 H :    0.128187
  19 H :    0.133152
Sum of atomic charges:   -0.0000000

LOEWDIN ATOMIC CHARGES
----------------------
   0 C :   -0.271788
   1 C :   -0.329024
   2 C :   -0.175414
   3 C :   -0.237820
   4 C :   -0.175415
   5 C :   -0.288327
   6 N :    0.079165
   7 C :   -0.372814
   8 O :    0.264210
   9 H :    0.127937
  10 H :    0.130794
  11 H :    0.130793
  12 H :    0.137304
  13 H :    0.141358
  14 H :    0.141563
  15 H :    0.141358
  16 H :    0.137304
  17 H :    0.142273
  18 H :    0.142273
  19 H :    0.134270

  Mayer bond orders larger than 0.1
B(  0-C ,  1-C ) :   0.8879 B(  0-C ,  9-H ) :   0.9394 B(  0-C , 10-H ) :   0.9381
B(  0-C , 11-H ) :   0.9381 B(  1-C ,  2-C ) :   0.9208 B(  1-C ,  4-C ) :   0.9208
B(  1-C ,  8-O ) :   0.8644 B(  2-C ,  3-C ) :   0.9127 B(  2-C , 12-H ) :   0.9166
B(  2-C , 13-H ) :   0.9065 B(  3-C ,  4-C ) :   0.9127 B(  3-C ,  5-C ) :   0.9085
B(  3-C , 14-H ) :   0.9169 B(  4-C , 15-H ) :   0.9065 B(  4-C , 16-H ) :   0.9166
B(  5-C ,  6-N ) :   0.9448 B(  5-C , 17-H ) :   0.9295 B(  5-C , 18-H ) :   0.9295
B(  6-N ,  7-C ) :   1.8570 B(  7-C ,  8-O ) :   1.0753 B(  7-C , 19-H ) :   0.9298

MP2 TOTAL ENERGY:     -402.460751022 Eh
FINAL SINGLE POINT ENERGY      -402.460751022092

DIPOLE MOMENT
-------------
                                X             Y             Z
Electronic contribution:     -4.18769      -2.77295      -2.03625
Nuclear contribution   :      4.93255       3.29295       2.40031
                        -----------------------------------------
Total Dipole Moment    :      0.74486       0.52000       0.36405
                        -----------------------------------------
Magnitude (a.u.)       :      0.97865
Magnitude (Debye)      :      2.48753

                             ****ORCA TERMINATED NORMALLY****
TOTAL RUN TIME: 0 days 0 hours 20 minutes 43 seconds 39 msec
