                         Program Version 3.0.3 - RELEASE   -
|  1> ! RI-MP2 RIJK def2-TZVP def2-TZVP/C def2-TZVP/JK TIGHTSCF
|  2> % maxcore 2000
|  3> % mp2 density relaxed end
|  4> *xyz 0 1
|  5>  C        0.2675249120     1.3337543779     0.2187173611
|  6>  O        0.1393545455    -0.0747366327    -0.0131932185
|  7>  C        0.5417414843    -0.4978238144    -1.2281603081
|  8>  O        0.9900293953     0.2345567585    -2.0745683600
|  9>  C        0.3212653887    -1.9919310845    -1.3795002263
| 10>  C        1.1931510280    -2.5780418461    -2.4650168697
| 11>  N        2.4978513874    -3.1157830679    -2.0428389365
| 12>  C        1.4859541134    -4.0302547867    -2.6012459229
| 13>  C        0.9435957219    -5.1054318011    -1.6891777649
| 14>  H        1.3110429842     1.6453297977     0.1277145659
| 15>  H       -0.3306532425     1.9002292313    -0.4997088856
| 16>  H       -0.0941192545     1.5017006197     1.2332301127
| 17>  H        0.4974115490    -2.4748675292    -0.4169786349
| 18>  H       -0.7412990127    -2.1358074242    -1.6196641077
| 19>  H        1.1718102000    -2.0001556879    -3.3856341982
| 20>  H        3.2125393233    -2.8980837579    -2.7312607957
| 21>  H        1.6471161447    -4.3655651199    -3.6258775207
| 22>  H        0.8262611873    -4.7408662196    -0.6664527385
| 23>  H       -0.0284975119    -5.4653577728    -2.0442070910
| 24>  H        1.6268937867    -5.9608665502    -1.6590433604
| 25> *
| 26>
| 27>                          ****END OF INPUT****

CARTESIAN COORDINATES (ANGSTROEM)
---------------------------------
  C      0.267525    1.333754    0.218717
  O      0.139355   -0.074737   -0.013193
  C      0.541741   -0.497824   -1.228160
  O      0.990029    0.234557   -2.074568
  C      0.321265   -1.991931   -1.379500
  C      1.193151   -2.578042   -2.465017
  N      2.497851   -3.115783   -2.042839
  C      1.485954   -4.030255   -2.601246
  C      0.943596   -5.105432   -1.689178
  H      1.311043    1.645330    0.127715
  H     -0.330653    1.900229   -0.499709
  H     -0.094119    1.501701    1.233230
  H      0.497412   -2.474868   -0.416979
  H     -0.741299   -2.135807   -1.619664
  H      1.171810   -2.000156   -3.385634
  H      3.212539   -2.898084   -2.731261
  H      1.647116   -4.365565   -3.625878
  H      0.826261   -4.740866   -0.666453
  H     -0.028498   -5.465358   -2.044207
  H      1.626894   -5.960867   -1.659043

 Total Charge           Charge          ....    0
 Multiplicity           Mult            ....    1
 Number of Electrons    NEL             ....   70
 Basis Dimension        Dim             ....  345

ORBITAL ENERGIES
----------------

  NO   OCC          E(Eh)            E(eV)
   0   2.0000     -20.601056      -560.5832
   1   2.0000     -20.540884      -558.9459
   2   2.0000     -15.553933      -423.2440
   3   2.0000     -11.376761      -309.5774
   4   2.0000     -11.283591      -307.0421
   5   2.0000     -11.262415      -306.4659
   6   2.0000     -11.260937      -306.4257
   7   2.0000     -11.243879      -305.9615
   8   2.0000     -11.220315      -305.3203
   9   2.0000      -1.458798       -39.6959
  10   2.0000      -1.358077       -36.9552
  11   2.0000      -1.262395       -34.3515
  12   2.0000      -1.045261       -28.4430
  13   2.0000      -0.991641       -26.9839
  14   2.0000      -0.959632       -26.1129
  15   2.0000      -0.855245       -23.2724
  16   2.0000      -0.791658       -21.5421
  17   2.0000      -0.756319       -20.5805
  18   2.0000      -0.724481       -19.7141
  19   2.0000      -0.687376       -18.7044
  20   2.0000      -0.675488       -18.3810
  21   2.0000      -0.669595       -18.2206
  22   2.0000      -0.604060       -16.4373
  23   2.0000      -0.594927       -16.1888
  24   2.0000      -0.580581       -15.7984
  25   2.0000      -0.568247       -15.4628
  26   2.0000      -0.556560       -15.1448
  27   2.0000      -0.527823       -14.3628
  28   2.0000      -0.525835       -14.3087
  29   2.0000      -0.496760       -13.5175
  30   2.0000      -0.463302       -12.6071
  31   2.0000      -0.457996       -12.4627
  32   2.0000      -0.456522       -12.4226
  33   2.0000      -0.446537       -12.1509
  34   2.0000      -0.390540       -10.6271
  35   0.0000       0.135369         3.6836
  36   0.0000       0.150699         4.1007
  37   0.0000       0.158163         4.3038
  38   0.0000       0.167429         4.5560
  39   0.0000       0.182297         4.9605

MULLIKEN ATOMIC CHARGES
-----------------------
   0 C :   -0.219685
   1 O :   -0.256880
   2 C :    0.294618
   3 O :   -0.338668
   4 C :   -0.207056
   5 C :   -0.049078
   6 N :   -0.417115
   7 C :    0.014946
   8 C :   -0.391410
   9 H :    0.141403
  10 H :    0.138024
  11 H :    0.143548
  12 H :    0.146586
  13 H :    0.136254
  14 H :    0.138321
  15 H :    0.220030
  16 H :    0.117853
  17 H :    0.130560
  18 H :    0.123764
  19 H :    0.133985
Sum of atomic charges:   -0.0000000

LOEWDIN ATOMIC CHARGES
----------------------
   0 C :   -0.310672
   1 O :    0.226692
   2 C :   -0.471735
   3 O :    0.122362
   4 C :   -0.214512
   5 C :   -0.257676
   6 N :   -0.000550
   7 C :   -0.284420
   8 C :   -0.296479
   9 H :    0.114439
  10 H :    0.113141
  11 H :    0.114417
  12 H :    0.157118
  13 H :    0.160298
  14 H :    0.145502
  15 H :    0.166110
  16 H :    0.136644
  17 H :    0.126463
  18 H :    0.125574
  19 H :    0.127285

  Mayer bond orders larger than 0.1
B(  0-C ,  1-O ) :   0.8414 B(  0-C ,  9-H ) :   0.9387 B(  0-C , 10-H ) :   0.9398
B(  0-C , 11-H ) :   0.9336 B(  1-O ,  2-C ) :   1.1418 B(  2-C ,  3-O ) :   1.9117
B(  2-C ,  4-C ) :   0.9620 B(  4-C ,  5-C ) :   0.8934 B(  4-C , 12-H ) :   0.9233
B(  4-C , 13-H ) :   0.8960 B(  5-C ,  6-N ) :   0.9055 B(  5-C ,  7-C ) :   0.8959
B(  5-C , 14-H ) :   0.9229 B(  6-N ,  7-C ) :   0.9061 B(  6-N , 15-H ) :   0.8700
B(  7-C ,  8-C ) :   0.8960 B(  7-C , 16-H ) :   0.9267 B(  8-C , 17-H ) :   0.9441
B(  8-C , 18-H ) :   0.9354 B(  8-C , 19-H ) :   0.9360

MP2 TOTAL ENERGY:     -439.572912786 Eh
FINAL SINGLE POINT ENERGY      -439.572912786160

DIPOLE MOMENT
-------------
                                X             Y             Z
Electronic contribution:      0.56681       5.56649      -0.65011
Nuclear contribution   :     -0.99965      -5.75705       0.62824
                        -----------------------------------------
Total Dipole Moment    :     -0.43283      -0.19057      -0.02186
                        -----------------------------------------
Magnitude (a.u.)       :      0.47343
Magnitude (Debye)      :      1.20337

                             ****ORCA TERMINATED NORMALLY****
TOTAL RUN TIME: 0 days 0 hours 15 minutes 2 seconds 674 msec
