                         Program Version 3.0.3 - RELEASE   -
|  1> ! RI-MP2 RIJK def2-TZVP def2-TZVP/C def2-TZVP/JK TIGHTSCF
|  2> % maxcore 2000
|  3> % mp2 density relaxed end
|  4> *xyz 0 1
|  5>  C       -0.2019429174     1.5255640206     0.0138972594
|  6>  C        0.1326946948     0.0336103322    -0.0959860789
|  7>  C        0.8246471757    -0.5036618913     1.1458271352
|  8>  C       -0.0386689520    -0.8409618965     2.4022879661
|  9>  O       -0.5996043295    -2.0065114687     1.6711496556
| 10>  C        0.8578955878    -2.0439639744     1.3783966904
| 11>  C        1.0981993278    -1.7613372943     2.8680664729
| 12>  C        2.2140403589    -1.7252213817     3.8009175734
| 13>  O        1.1078614580    -2.6573506258     3.9299875427
| 14>  H        0.6981122135     2.1273963800     0.1833478825
| 15>  H       -0.6771730417     1.8897883751    -0.9018447761
| 16>  H       -0.8904648351     1.7184391481     0.8436266531
| 17>  H       -0.7764524505    -0.5480278898    -0.2709363225
| 18>  H        0.7889959770    -0.1297714203    -0.9605017732
| 19>  H        1.7645674639     0.0192052889     1.3592674291
| 20>  H       -0.7283575638    -0.2219831371     2.9749491216
| 21>  H        1.2263497734    -2.8446540974     0.7378161048
| 22>  H        3.1674150747    -2.1779884769     3.5340545781
| 23>  H        2.2608656445    -0.9583309109     4.5721814060
| 24> *
| 25>
| 26>                          ****END OF INPUT****

CARTESIAN COORDINATES (ANGSTROEM)
---------------------------------
  C     -0.201943    1.525564    0.013897
  C      0.132695    0.033610   -0.095986
  C      0.824647   -0.503662    1.145827
  C     -0.038669   -0.840962    2.402288
  O     -0.599604   -2.006511    1.671150
  C      0.857896   -2.043964    1.378397
  C      1.098199   -1.761337    2.868066
  C      2.214040   -1.725221    3.800918
  O      1.107861   -2.657351    3.929988
  H      0.698112    2.127396    0.183348
  H     -0.677173    1.889788   -0.901845
  H     -0.890465    1.718439    0.843627
  H     -0.776452   -0.548028   -0.270936
  H      0.788996   -0.129771   -0.960502
  H      1.764567    0.019205    1.359267
  H     -0.728358   -0.221983    2.974949
  H      1.226350   -2.844654    0.737816
  H      3.167415   -2.177988    3.534055
  H      2.260866   -0.958331    4.572181

 Total Charge           Charge          ....    0
 Multiplicity           Mult            ....    1
 Number of Electrons    NEL             ....   68
 Basis Dimension        Dim             ....  339

ORBITAL ENERGIES
----------------

  NO   OCC          E(Eh)            E(eV)
   0   2.0000     -20.576531      -559.9159
   1   2.0000     -20.554398      -559.3136
   2   2.0000     -11.308486      -307.7196
   3   2.0000     -11.305106      -307.6276
   4   2.0000     -11.305014      -307.6251
   5   2.0000     -11.293561      -307.3134
   6   2.0000     -11.252089      -306.1849
   7   2.0000     -11.225913      -305.4726
   8   2.0000     -11.220184      -305.3167
   9   2.0000      -1.433666       -39.0120
  10   2.0000      -1.389591       -37.8127
  11   2.0000      -1.092117       -29.7180
  12   2.0000      -1.030685       -28.0464
  13   2.0000      -0.924906       -25.1680
  14   2.0000      -0.903846       -24.5949
  15   2.0000      -0.896091       -24.3839
  16   2.0000      -0.806746       -21.9527
  17   2.0000      -0.737414       -20.0661
  18   2.0000      -0.713162       -19.4061
  19   2.0000      -0.681497       -18.5445
  20   2.0000      -0.677979       -18.4488
  21   2.0000      -0.609877       -16.5956
  22   2.0000      -0.597589       -16.2612
  23   2.0000      -0.568303       -15.4643
  24   2.0000      -0.550705       -14.9855
  25   2.0000      -0.540590       -14.7102
  26   2.0000      -0.528976       -14.3942
  27   2.0000      -0.505997       -13.7689
  28   2.0000      -0.493582       -13.4310
  29   2.0000      -0.476380       -12.9630
  30   2.0000      -0.454589       -12.3700
  31   2.0000      -0.446363       -12.1462
  32   2.0000      -0.425789       -11.5863
  33   2.0000      -0.415557       -11.3079
  34   0.0000       0.134834         3.6690
  35   0.0000       0.148700         4.0463
  36   0.0000       0.162656         4.4261
  37   0.0000       0.167969         4.5707
  38   0.0000       0.186657         5.0792

MULLIKEN ATOMIC CHARGES
-----------------------
   0 C :   -0.396487
   1 C :   -0.250055
   2 C :   -0.026243
   3 C :   -0.056527
   4 O :   -0.307641
   5 C :   -0.030500
   6 C :    0.190868
   7 C :   -0.113742
   8 O :   -0.318356
   9 H :    0.121357
  10 H :    0.137852
  11 H :    0.126246
  12 H :    0.149245
  13 H :    0.110865
  14 H :    0.108477
  15 H :    0.152665
  16 H :    0.149503
  17 H :    0.126229
  18 H :    0.126246
Sum of atomic charges:    0.0000000

LOEWDIN ATOMIC CHARGES
----------------------
   0 C :   -0.315325
   1 C :   -0.275593
   2 C :   -0.184580
   3 C :   -0.166715
   4 O :    0.137585
   5 C :   -0.165135
   6 C :   -0.304882
   7 C :   -0.221639
   8 O :    0.190374
   9 H :    0.119758
  10 H :    0.122606
  11 H :    0.120854
  12 H :    0.147374
  13 H :    0.139212
  14 H :    0.149283
  15 H :    0.129321
  16 H :    0.129661
  17 H :    0.123904
  18 H :    0.123939

  Mayer bond orders larger than 0.1
B(  0-C ,  1-C ) :   0.9075 B(  0-C ,  9-H ) :   0.9385 B(  0-C , 10-H ) :   0.9410
B(  0-C , 11-H ) :   0.9414 B(  1-C ,  2-C ) :   0.8924 B(  1-C , 12-H ) :   0.9347
B(  1-C , 13-H ) :   0.9310 B(  2-C ,  3-C ) :   0.9306 B(  2-C ,  5-C ) :   0.9023
B(  2-C , 14-H ) :   0.9104 B(  3-C ,  4-O ) :   0.8946 B(  3-C ,  6-C ) :   0.9290
B(  3-C , 15-H ) :   0.8714 B(  4-O ,  5-C ) :   0.8912 B(  5-C ,  6-C ) :   0.9252
B(  5-C , 16-H ) :   0.8782 B(  6-C ,  7-C ) :   0.9816 B(  6-C ,  8-O ) :   0.9408
B(  7-C ,  8-O ) :   0.8853 B(  7-C , 17-H ) :   0.9108 B(  7-C , 18-H ) :   0.9094

MP2 TOTAL ENERGY:     -422.213853378 Eh
FINAL SINGLE POINT ENERGY      -422.213853377731

DIPOLE MOMENT
-------------
                                X             Y             Z
Electronic contribution:      0.00874      -8.34627       6.18642
Nuclear contribution   :      0.91954       9.28923      -6.50100
                        -----------------------------------------
Total Dipole Moment    :      0.92828       0.94296      -0.31458
                        -----------------------------------------
Magnitude (a.u.)       :      1.36009
Magnitude (Debye)      :      3.45708

                             ****ORCA TERMINATED NORMALLY****
TOTAL RUN TIME: 0 days 0 hours 27 minutes 56 seconds 961 msec
