                         Program Version 3.0.3 - RELEASE   -
|  1> ! RI-MP2 RIJK def2-TZVP def2-TZVP/C def2-TZVP/JK TIGHTSCF
|  2> % maxcore 2000
|  3> % mp2 density relaxed end
|  4> *xyz 0 1
|  5>  C       -0.0188437040     1.4490426076    -0.3229737859
|  6>  O        1.2526401411     1.7202884291     0.3012141771
|  7>  C        1.3859555367     0.3474952813     0.7410854357
|  8>  C        1.4515085369     0.2219700139     2.2603935851
|  9>  C        1.3803013777    -1.2168294126     2.7251679760
| 10>  C        0.4832908992    -2.1415903582     2.3742037217
| 11>  C       -0.7124951429    -2.0298705443     1.4610250203
| 12>  C       -1.0504144700    -0.6314399856     0.9229872913
| 13>  C        0.0529834860    -0.0473202800     0.0517235663
| 14>  H       -0.8364582504     2.0112077999     0.1493994930
| 15>  H       -0.0066345827     1.6805394318    -1.3949740766
| 16>  H        2.2742787630    -0.1200816402     0.2969831145
| 17>  H        2.3865178021     0.6770195990     2.6035348111
| 18>  H        0.6489070339     0.8239268118     2.7029160189
| 19>  H        2.1615330887    -1.5258801302     3.4159279156
| 20>  H        0.6076051179    -3.1353389517     2.8036520637
| 21>  H       -0.5676484491    -2.7175533735     0.6128488080
| 22>  H       -1.5862258653    -2.4293410604     1.9950601289
| 23>  H       -1.9750516232    -0.6938286592     0.3355138450
| 24>  H       -1.2697108045     0.0427187201     1.7590220325
| 25>  H        0.2140505290    -0.6922936286    -0.8173299824
| 26> *
| 27>
| 28>                          ****END OF INPUT****

CARTESIAN COORDINATES (ANGSTROEM)
---------------------------------
  C     -0.018844    1.449043   -0.322974
  O      1.252640    1.720288    0.301214
  C      1.385956    0.347495    0.741085
  C      1.451509    0.221970    2.260394
  C      1.380301   -1.216829    2.725168
  C      0.483291   -2.141590    2.374204
  C     -0.712495   -2.029871    1.461025
  C     -1.050414   -0.631440    0.922987
  C      0.052983   -0.047320    0.051724
  H     -0.836458    2.011208    0.149399
  H     -0.006635    1.680539   -1.394974
  H      2.274279   -0.120082    0.296983
  H      2.386518    0.677020    2.603535
  H      0.648907    0.823927    2.702916
  H      2.161533   -1.525880    3.415928
  H      0.607605   -3.135339    2.803652
  H     -0.567648   -2.717553    0.612849
  H     -1.586226   -2.429341    1.995060
  H     -1.975052   -0.693829    0.335514
  H     -1.269711    0.042719    1.759022
  H      0.214051   -0.692294   -0.817330

 Total Charge           Charge          ....    0
 Multiplicity           Mult            ....    1
 Number of Electrons    NEL             ....   68
 Basis Dimension        Dim             ....  351

ORBITAL ENERGIES
----------------

  NO   OCC          E(Eh)            E(eV)
   0   2.0000     -20.540301      -558.9300
   1   2.0000     -11.277021      -306.8633
   2   2.0000     -11.273011      -306.7542
   3   2.0000     -11.232679      -305.6567
   4   2.0000     -11.230276      -305.5913
   5   2.0000     -11.229694      -305.5755
   6   2.0000     -11.228083      -305.5317
   7   2.0000     -11.226664      -305.4931
   8   2.0000     -11.222957      -305.3922
   9   2.0000      -1.371423       -37.3183
  10   2.0000      -1.110125       -30.2080
  11   2.0000      -1.045501       -28.4495
  12   2.0000      -1.013934       -27.5906
  13   2.0000      -0.947342       -25.7785
  14   2.0000      -0.877726       -23.8841
  15   2.0000      -0.852091       -23.1866
  16   2.0000      -0.735534       -20.0149
  17   2.0000      -0.721064       -19.6212
  18   2.0000      -0.683579       -18.6011
  19   2.0000      -0.663593       -18.0573
  20   2.0000      -0.637266       -17.3409
  21   2.0000      -0.599808       -16.3216
  22   2.0000      -0.585330       -15.9276
  23   2.0000      -0.570470       -15.5233
  24   2.0000      -0.561932       -15.2909
  25   2.0000      -0.547828       -14.9072
  26   2.0000      -0.533296       -14.5117
  27   2.0000      -0.506022       -13.7696
  28   2.0000      -0.489687       -13.3251
  29   2.0000      -0.466025       -12.6812
  30   2.0000      -0.439465       -11.9584
  31   2.0000      -0.431980       -11.7548
  32   2.0000      -0.407087       -11.0774
  33   2.0000      -0.348332        -9.4786
  34   0.0000       0.129493         3.5237
  35   0.0000       0.149853         4.0777
  36   0.0000       0.157919         4.2972
  37   0.0000       0.163555         4.4506
  38   0.0000       0.169510         4.6126

MULLIKEN ATOMIC CHARGES
-----------------------
   0 C :   -0.016113
   1 O :   -0.333722
   2 C :    0.135627
   3 C :   -0.239705
   4 C :   -0.171412
   5 C :   -0.221388
   6 C :   -0.132456
   7 C :   -0.260077
   8 C :   -0.136333
   9 H :    0.087999
  10 H :    0.095857
  11 H :    0.087538
  12 H :    0.134963
  13 H :    0.131010
  14 H :    0.121198
  15 H :    0.118022
  16 H :    0.113526
  17 H :    0.128097
  18 H :    0.127556
  19 H :    0.122138
  20 H :    0.107675
Sum of atomic charges:    0.0000000

LOEWDIN ATOMIC CHARGES
----------------------
   0 C :   -0.251118
   1 O :    0.130304
   2 C :   -0.253487
   3 C :   -0.238310
   4 C :   -0.174893
   5 C :   -0.176044
   6 C :   -0.253620
   7 C :   -0.245369
   8 C :   -0.217800
   9 H :    0.117060
  10 H :    0.115534
  11 H :    0.136249
  12 H :    0.146654
  13 H :    0.147607
  14 H :    0.143987
  15 H :    0.145663
  16 H :    0.147005
  17 H :    0.146542
  18 H :    0.142243
  19 H :    0.143096
  20 H :    0.148698

  Mayer bond orders larger than 0.1
B(  0-C ,  1-O ) :   0.9567 B(  0-C ,  8-C ) :   0.9679 B(  0-C ,  9-H ) :   0.9027
B(  0-C , 10-H ) :   0.9153 B(  1-O ,  2-C ) :   0.9545 B(  2-C ,  3-C ) :   0.8987
B(  2-C ,  8-C ) :   0.9494 B(  2-C , 11-H ) :   0.9119 B(  3-C ,  4-C ) :   0.8982
B(  3-C , 12-H ) :   0.9294 B(  3-C , 13-H ) :   0.9302 B(  4-C ,  5-C ) :   1.8175
B(  4-C , 14-H ) :   0.9281 B(  5-C ,  6-C ) :   0.9392 B(  5-C , 15-H ) :   0.9281
B(  6-C ,  7-C ) :   0.9151 B(  6-C , 16-H ) :   0.9153 B(  6-C , 17-H ) :   0.9204
B(  7-C ,  8-C ) :   0.9222 B(  7-C , 18-H ) :   0.9283 B(  7-C , 19-H ) :   0.9331
B(  8-C , 20-H ) :   0.9192

MP2 TOTAL ENERGY:     -386.401807896 Eh
FINAL SINGLE POINT ENERGY      -386.401807895838

DIPOLE MOMENT
-------------
                                X             Y             Z
Electronic contribution:      2.79292       2.57066      -0.74142
Nuclear contribution   :     -3.30480      -3.20564       0.67598
                        -----------------------------------------
Total Dipole Moment    :     -0.51188      -0.63499      -0.06545
                        -----------------------------------------
Magnitude (a.u.)       :      0.81823
Magnitude (Debye)      :      2.07979

                             ****ORCA TERMINATED NORMALLY****
TOTAL RUN TIME: 0 days 0 hours 18 minutes 54 seconds 631 msec
