                         Program Version 3.0.3 - RELEASE   -
|  1> ! RI-MP2 RIJK def2-TZVP def2-TZVP/C def2-TZVP/JK TIGHTSCF
|  2> % maxcore 2000
|  3> % mp2 density relaxed end
|  4> *xyz 0 1
|  5>  C       -0.8559819560     1.2619850119     0.1131595012
|  6>  C       -0.2284573032    -0.1268684785     0.0723581061
|  7>  C        0.9730355601    -0.3001801958    -0.8811500516
|  8>  O        1.8753339140    -0.5644602136     0.2153653828
|  9>  C        0.7945321515    -0.5509909709     1.1775897427
| 10>  C        1.0893721391     0.3442145872     2.3644845827
| 11>  C       -0.0129634484     0.4231280661     3.3997915283
| 12>  C        2.5062001606     0.4384272801     2.8007079260
| 13>  N        1.8502719121     1.5841296172     2.1337351882
| 14>  H       -0.1217390907     2.0377956636     0.3461723024
| 15>  H       -1.3010807507     1.4976211439    -0.8601087684
| 16>  H       -1.6534072153     1.3245758229     0.8593198123
| 17>  H       -1.0067411483    -0.8789090790    -0.0801277660
| 18>  H        0.9133951190    -1.1524908473    -1.5690581748
| 19>  H        1.2690182048     0.5932227332    -1.4452244548
| 20>  H        0.5972353859    -1.5682929851     1.5478806919
| 21>  H       -0.2233822456    -0.5669710026     3.8204731125
| 22>  H        0.2861997648     1.0868052923     4.2144508458
| 23>  H       -0.9429528752     0.8142417930     2.9761105159
| 24>  H        2.7324203435     0.5850742732     3.8534876739
| 25>  H        3.2512009334    -0.1127099836     2.2355981004
| 26>  H        2.1703333348     1.5798646218     1.1661468426
| 27> *
| 28>
| 29>                          ****END OF INPUT****

CARTESIAN COORDINATES (ANGSTROEM)
---------------------------------
  C     -0.855982    1.261985    0.113160
  C     -0.228457   -0.126868    0.072358
  C      0.973036   -0.300180   -0.881150
  O      1.875334   -0.564460    0.215365
  C      0.794532   -0.550991    1.177590
  C      1.089372    0.344215    2.364485
  C     -0.012963    0.423128    3.399792
  C      2.506200    0.438427    2.800708
  N      1.850272    1.584130    2.133735
  H     -0.121739    2.037796    0.346172
  H     -1.301081    1.497621   -0.860109
  H     -1.653407    1.324576    0.859320
  H     -1.006741   -0.878909   -0.080128
  H      0.913395   -1.152491   -1.569058
  H      1.269018    0.593223   -1.445224
  H      0.597235   -1.568293    1.547881
  H     -0.223382   -0.566971    3.820473
  H      0.286200    1.086805    4.214451
  H     -0.942953    0.814242    2.976111
  H      2.732420    0.585074    3.853488
  H      3.251201   -0.112710    2.235598
  H      2.170333    1.579865    1.166147

 Total Charge           Charge          ....    0
 Multiplicity           Mult            ....    1
 Number of Electrons    NEL             ....   70
 Basis Dimension        Dim             ....  357

ORBITAL ENERGIES
----------------

  NO   OCC          E(Eh)            E(eV)
   0   2.0000     -20.553784      -559.2969
   1   2.0000     -15.546929      -423.0534
   2   2.0000     -11.288185      -307.1671
   3   2.0000     -11.281078      -306.9737
   4   2.0000     -11.260705      -306.4194
   5   2.0000     -11.242543      -305.9252
   6   2.0000     -11.240700      -305.8750
   7   2.0000     -11.222166      -305.3707
   8   2.0000     -11.218531      -305.2717
   9   2.0000      -1.385405       -37.6988
  10   2.0000      -1.253847       -34.1189
  11   2.0000      -1.058565       -28.8050
  12   2.0000      -1.004815       -27.3424
  13   2.0000      -0.937544       -25.5119
  14   2.0000      -0.915958       -24.9245
  15   2.0000      -0.870723       -23.6936
  16   2.0000      -0.797329       -21.6964
  17   2.0000      -0.730993       -19.8913
  18   2.0000      -0.696903       -18.9637
  19   2.0000      -0.683001       -18.5854
  20   2.0000      -0.634575       -17.2677
  21   2.0000      -0.611291       -16.6341
  22   2.0000      -0.589003       -16.0276
  23   2.0000      -0.585003       -15.9187
  24   2.0000      -0.563424       -15.3315
  25   2.0000      -0.554071       -15.0770
  26   2.0000      -0.548434       -14.9237
  27   2.0000      -0.517333       -14.0774
  28   2.0000      -0.512273       -13.9397
  29   2.0000      -0.482001       -13.1159
  30   2.0000      -0.463660       -12.6168
  31   2.0000      -0.450261       -12.2522
  32   2.0000      -0.438045       -11.9198
  33   2.0000      -0.416790       -11.3414
  34   2.0000      -0.375044       -10.2055
  35   0.0000       0.132123         3.5952
  36   0.0000       0.155698         4.2368
  37   0.0000       0.164717         4.4822
  38   0.0000       0.168570         4.5870
  39   0.0000       0.190436         5.1820

MULLIKEN ATOMIC CHARGES
-----------------------
   0 C :   -0.440787
   1 C :   -0.050780
   2 C :   -0.044429
   3 O :   -0.346178
   4 C :    0.052523
   5 C :    0.176133
   6 C :   -0.443199
   7 C :   -0.210517
   8 N :   -0.405450
   9 H :    0.148227
  10 H :    0.137681
  11 H :    0.127642
  12 H :    0.112324
  13 H :    0.101432
  14 H :    0.102959
  15 H :    0.091724
  16 H :    0.129616
  17 H :    0.146839
  18 H :    0.126148
  19 H :    0.118405
  20 H :    0.144639
  21 H :    0.225048
Sum of atomic charges:   -0.0000000

LOEWDIN ATOMIC CHARGES
----------------------
   0 C :   -0.295746
   1 C :   -0.236862
   2 C :   -0.253105
   3 O :    0.134540
   4 C :   -0.229352
   5 C :   -0.330511
   6 C :   -0.261159
   7 C :   -0.240637
   8 N :   -0.000104
   9 H :    0.130048
  10 H :    0.126521
  11 H :    0.123213
  12 H :    0.145141
  13 H :    0.117713
  14 H :    0.118317
  15 H :    0.143537
  16 H :    0.128224
  17 H :    0.135210
  18 H :    0.124787
  19 H :    0.124346
  20 H :    0.128228
  21 H :    0.167651

  Mayer bond orders larger than 0.1
B(  0-C ,  1-C ) :   0.8998 B(  0-C ,  9-H ) :   0.9366 B(  0-C , 10-H ) :   0.9303
B(  0-C , 11-H ) :   0.9374 B(  1-C ,  2-C ) :   0.9503 B(  1-C ,  4-C ) :   0.9248
B(  1-C , 12-H ) :   0.9245 B(  2-C ,  3-O ) :   0.9268 B(  2-C , 13-H ) :   0.9159
B(  2-C , 14-H ) :   0.9143 B(  3-O ,  4-C ) :   0.9399 B(  4-C ,  5-C ) :   0.9487
B(  4-C , 15-H ) :   0.9129 B(  5-C ,  6-C ) :   0.8706 B(  5-C ,  7-C ) :   0.9433
B(  5-C ,  8-N ) :   0.8911 B(  6-C , 16-H ) :   0.9411 B(  6-C , 17-H ) :   0.9361
B(  6-C , 18-H ) :   0.9395 B(  7-C ,  8-N ) :   0.9119 B(  7-C , 19-H ) :   0.9209
B(  7-C , 20-H ) :   0.9040 B(  8-N , 21-H ) :   0.8725

MP2 TOTAL ENERGY:     -403.618984442 Eh
FINAL SINGLE POINT ENERGY      -403.618984441816

DIPOLE MOMENT
-------------
                                X             Y             Z
Electronic contribution:      4.58242      -1.89918      -1.08655
Nuclear contribution   :     -5.23133       1.42641       0.73378
                        -----------------------------------------
Total Dipole Moment    :     -0.64891      -0.47277      -0.35278
                        -----------------------------------------
Magnitude (a.u.)       :      0.87695
Magnitude (Debye)      :      2.22903

                             ****ORCA TERMINATED NORMALLY****
TOTAL RUN TIME: 0 days 0 hours 19 minutes 32 seconds 29 msec
