                         Program Version 3.0.3 - RELEASE   -
|  1> ! RI-MP2 RIJK def2-TZVP def2-TZVP/C def2-TZVP/JK TIGHTSCF
|  2> % maxcore 2000
|  3> % mp2 density relaxed end
|  4> *xyz 0 1
|  5>  C       -0.0859695741     1.4626299347    -0.0090779220
|  6>  N        0.0208487326     0.0125862477     0.0089736079
|  7>  C       -1.0346398565    -0.6855475611     0.0266657867
|  8>  O       -2.2950666527    -0.0688143805     0.0288625835
|  9>  N       -3.5025162247    -0.8094675911     0.0314544074
| 10>  N       -3.4613051054    -2.0410043716     0.0531394520
| 11>  C       -2.2491454216    -2.7634024953     0.0663593517
| 12>  N       -2.4654424569    -4.1128137233     0.1445870256
| 13>  C       -1.0607417529    -2.1222268012     0.0436767079
| 14>  H        0.9191110633     1.8903226236    -0.0322004763
| 15>  H       -0.6371774305     1.8273440066    -0.8862725985
| 16>  H       -0.6053815984     1.8502073576     0.8776703272
| 17>  H       -3.3866838816    -4.4209356571    -0.1249422532
| 18>  H       -1.7081787320    -4.7260483651    -0.1088820054
| 19>  H       -0.1098014586    -2.6389629140     0.0421850854
| 20> *
| 21>
| 22>                          ****END OF INPUT****

CARTESIAN COORDINATES (ANGSTROEM)
---------------------------------
  C     -0.085970    1.462630   -0.009078
  N      0.020849    0.012586    0.008974
  C     -1.034640   -0.685548    0.026666
  O     -2.295067   -0.068814    0.028863
  N     -3.502516   -0.809468    0.031454
  N     -3.461305   -2.041004    0.053139
  C     -2.249145   -2.763402    0.066359
  N     -2.465442   -4.112814    0.144587
  C     -1.060742   -2.122227    0.043677
  H      0.919111    1.890323   -0.032200
  H     -0.637177    1.827344   -0.886273
  H     -0.605382    1.850207    0.877670
  H     -3.386684   -4.420936   -0.124942
  H     -1.708179   -4.726048   -0.108882
  H     -0.109801   -2.638963    0.042185

 Total Charge           Charge          ....    0
 Multiplicity           Mult            ....    1
 Number of Electrons    NEL             ....   66
 Basis Dimension        Dim             ....  315

ORBITAL ENERGIES
----------------

  NO   OCC          E(Eh)            E(eV)
   0   2.0000     -20.645029      -561.7798
   1   2.0000     -15.737208      -428.2312
   2   2.0000     -15.657203      -426.0542
   3   2.0000     -15.602667      -424.5702
   4   2.0000     -15.536854      -422.7793
   5   2.0000     -11.353987      -308.9577
   6   2.0000     -11.347782      -308.7889
   7   2.0000     -11.251827      -306.1778
   8   2.0000     -11.237509      -305.7882
   9   2.0000      -1.506652       -40.9981
  10   2.0000      -1.355468       -36.8842
  11   2.0000      -1.266396       -34.4604
  12   2.0000      -1.212624       -32.9972
  13   2.0000      -1.087434       -29.5906
  14   2.0000      -0.973417       -26.4880
  15   2.0000      -0.942825       -25.6556
  16   2.0000      -0.861181       -23.4339
  17   2.0000      -0.783563       -21.3218
  18   2.0000      -0.731805       -19.9134
  19   2.0000      -0.702441       -19.1144
  20   2.0000      -0.681747       -18.5513
  21   2.0000      -0.679217       -18.4824
  22   2.0000      -0.640324       -17.4241
  23   2.0000      -0.610410       -16.6101
  24   2.0000      -0.586695       -15.9648
  25   2.0000      -0.561092       -15.2681
  26   2.0000      -0.558474       -15.1969
  27   2.0000      -0.533583       -14.5195
  28   2.0000      -0.503452       -13.6996
  29   2.0000      -0.467548       -12.7226
  30   2.0000      -0.430242       -11.7075
  31   2.0000      -0.405424       -11.0321
  32   2.0000      -0.324713        -8.8359
  33   0.0000       0.058047         1.5795
  34   0.0000       0.119302         3.2464
  35   0.0000       0.149731         4.0744
  36   0.0000       0.162805         4.4302
  37   0.0000       0.165289         4.4978

MULLIKEN ATOMIC CHARGES
-----------------------
   0 C :   -0.283430
   1 N :   -0.259093
   2 C :    0.170371
   3 O :   -0.154296
   4 N :   -0.015752
   5 N :   -0.072833
   6 C :    0.266458
   7 N :   -0.502532
   8 C :   -0.235237
   9 H :    0.140517
  10 H :    0.130861
  11 H :    0.131703
  12 H :    0.273053
  13 H :    0.261285
  14 H :    0.148924
Sum of atomic charges:   -0.0000000

LOEWDIN ATOMIC CHARGES
----------------------
   0 C :   -0.336807
   1 N :    0.069014
   2 C :   -0.383145
   3 O :    0.190701
   4 N :    0.010315
   5 N :    0.069948
   6 C :   -0.335909
   7 N :   -0.027384
   8 C :   -0.118439
   9 H :    0.113905
  10 H :    0.114870
  11 H :    0.115296
  12 H :    0.179657
  13 H :    0.175858
  14 H :    0.162120

  Mayer bond orders larger than 0.1
B(  0-C ,  1-N ) :   0.8772 B(  0-C ,  9-H ) :   0.9441 B(  0-C , 10-H ) :   0.9287
B(  0-C , 11-H ) :   0.9286 B(  1-N ,  2-C ) :   1.9032 B(  2-C ,  3-O ) :   0.9890
B(  2-C ,  8-C ) :   1.1060 B(  3-O ,  4-N ) :   0.8381 B(  4-N ,  5-N ) :   1.5643
B(  5-N ,  6-C ) :   1.0335 B(  6-C ,  7-N ) :   1.1134 B(  6-C ,  8-C ) :   1.5033
B(  7-N , 12-H ) :   0.8564 B(  7-N , 13-H ) :   0.8740 B(  8-C , 14-H ) :   0.9032

MP2 TOTAL ENERGY:     -449.329157819 Eh
FINAL SINGLE POINT ENERGY      -449.329157819397

DIPOLE MOMENT
-------------
                                X             Y             Z
Electronic contribution:     -4.86662      -2.44146       0.16183
Nuclear contribution   :      4.93884       1.04885      -0.44528
                        -----------------------------------------
Total Dipole Moment    :      0.07222      -1.39261      -0.28345
                        -----------------------------------------
Magnitude (a.u.)       :      1.42300
Magnitude (Debye)      :      3.61698

                             ****ORCA TERMINATED NORMALLY****
TOTAL RUN TIME: 0 days 0 hours 16 minutes 19 seconds 678 msec
