                         Program Version 3.0.3 - RELEASE   -
|  1> ! RI-MP2 RIJK def2-TZVP def2-TZVP/C def2-TZVP/JK TIGHTSCF
|  2> % maxcore 2000
|  3> % mp2 density relaxed end
|  4> *xyz 0 1
|  5>  C        0.0402688781     1.5098248965    -0.2661236325
|  6>  C        0.0425905688     0.0210540499     0.1090081396
|  7>  C       -1.3397342401    -0.5317280516     0.2666854808
|  8>  C       -2.3700521435    -0.2606452441     1.3804071146
|  9>  C       -2.9776173819    -1.6892100002     1.1094614358
| 10>  C       -4.4406441948    -1.7893822958     0.7033920569
| 11>  C       -1.9237670541    -1.8573986529    -0.0011729195
| 12>  O       -2.1070190348    -0.7761407485    -0.9281209903
| 13>  H        1.0608799341     1.8857977498    -0.3824249529
| 14>  H       -0.4922212769     1.6677259007    -1.2085385368
| 15>  H       -0.4529395824     2.1124151203     0.5037860023
| 16>  H        0.5612766951    -0.5583601403    -0.6629738433
| 17>  H        0.5933094701    -0.1273865070     1.0465861591
| 18>  H       -1.9280116604    -0.1700015183     2.3759875749
| 19>  H       -3.0324411109     0.5892003419     1.1960450911
| 20>  H       -2.7568574481    -2.3557630545     1.9497500789
| 21>  H       -4.6312365000    -1.1636515199    -0.1730259684
| 22>  H       -4.7142721482    -2.8206513592     0.4537064391
| 23>  H       -5.0993591062    -1.4566165700     1.5126372392
| 24>  H       -1.4776721941    -2.7663664068    -0.3922532586
| 25> *
| 26>
| 27>                          ****END OF INPUT****

CARTESIAN COORDINATES (ANGSTROEM)
---------------------------------
  C      0.040269    1.509825   -0.266124
  C      0.042591    0.021054    0.109008
  C     -1.339734   -0.531728    0.266685
  C     -2.370052   -0.260645    1.380407
  C     -2.977617   -1.689210    1.109461
  C     -4.440644   -1.789382    0.703392
  C     -1.923767   -1.857399   -0.001173
  O     -2.107019   -0.776141   -0.928121
  H      1.060880    1.885798   -0.382425
  H     -0.492221    1.667726   -1.208539
  H     -0.452940    2.112415    0.503786
  H      0.561277   -0.558360   -0.662974
  H      0.593309   -0.127387    1.046586
  H     -1.928012   -0.170002    2.375988
  H     -3.032441    0.589200    1.196045
  H     -2.756857   -2.355763    1.949750
  H     -4.631236   -1.163652   -0.173026
  H     -4.714272   -2.820651    0.453706
  H     -5.099359   -1.456617    1.512637
  H     -1.477672   -2.766366   -0.392253

 Total Charge           Charge          ....    0
 Multiplicity           Mult            ....    1
 Number of Electrons    NEL             ....   62
 Basis Dimension        Dim             ....  320

ORBITAL ENERGIES
----------------

  NO   OCC          E(Eh)            E(eV)
   0   2.0000     -20.556164      -559.3617
   1   2.0000     -11.282081      -307.0010
   2   2.0000     -11.275135      -306.8120
   3   2.0000     -11.235625      -305.7369
   4   2.0000     -11.229599      -305.5729
   5   2.0000     -11.226325      -305.4838
   6   2.0000     -11.215497      -305.1892
   7   2.0000     -11.209563      -305.0277
   8   2.0000      -1.407522       -38.3006
   9   2.0000      -1.089595       -29.6494
  10   2.0000      -1.047748       -28.5107
  11   2.0000      -0.963442       -26.2166
  12   2.0000      -0.885976       -24.1086
  13   2.0000      -0.880755       -23.9666
  14   2.0000      -0.784640       -21.3511
  15   2.0000      -0.737184       -20.0598
  16   2.0000      -0.684216       -18.6185
  17   2.0000      -0.638316       -17.3695
  18   2.0000      -0.618998       -16.8438
  19   2.0000      -0.590073       -16.0567
  20   2.0000      -0.568102       -15.4588
  21   2.0000      -0.559141       -15.2150
  22   2.0000      -0.544550       -14.8180
  23   2.0000      -0.525626       -14.3030
  24   2.0000      -0.516526       -14.0554
  25   2.0000      -0.490623       -13.3505
  26   2.0000      -0.484921       -13.1954
  27   2.0000      -0.474111       -12.9012
  28   2.0000      -0.450174       -12.2499
  29   2.0000      -0.424453       -11.5500
  30   2.0000      -0.384603       -10.4656
  31   0.0000       0.135986         3.7004
  32   0.0000       0.149511         4.0684
  33   0.0000       0.162227         4.4144
  34   0.0000       0.177260         4.8235
  35   0.0000       0.194378         5.2893

MULLIKEN ATOMIC CHARGES
-----------------------
   0 C :   -0.410099
   1 C :   -0.212132
   2 C :    0.163834
   3 C :   -0.257950
   4 C :    0.041569
   5 C :   -0.448127
   6 C :   -0.040757
   7 O :   -0.342058
   8 H :    0.134481
   9 H :    0.144867
  10 H :    0.126270
  11 H :    0.121851
  12 H :    0.110377
  13 H :    0.119792
  14 H :    0.117243
  15 H :    0.097604
  16 H :    0.148893
  17 H :    0.126140
  18 H :    0.128062
  19 H :    0.130140
Sum of atomic charges:   -0.0000000

LOEWDIN ATOMIC CHARGES
----------------------
   0 C :   -0.307969
   1 C :   -0.258936
   2 C :   -0.281459
   3 C :   -0.173682
   4 C :   -0.233363
   5 C :   -0.300523
   6 C :   -0.210462
   7 O :    0.182075
   8 H :    0.121105
   9 H :    0.127282
  10 H :    0.121776
  11 H :    0.147692
  12 H :    0.144084
  13 H :    0.135032
  14 H :    0.134020
  15 H :    0.148380
  16 H :    0.129604
  17 H :    0.123384
  18 H :    0.123142
  19 H :    0.128818

  Mayer bond orders larger than 0.1
B(  0-C ,  1-C ) :   0.9224 B(  0-C ,  8-H ) :   0.9394 B(  0-C ,  9-H ) :   0.9383
B(  0-C , 10-H ) :   0.9361 B(  1-C ,  2-C ) :   0.8982 B(  1-C , 11-H ) :   0.9325
B(  1-C , 12-H ) :   0.9322 B(  2-C ,  3-C ) :   0.9384 B(  2-C ,  6-C ) :   0.8826
B(  2-C ,  7-O ) :   0.8717 B(  3-C ,  4-C ) :   0.9659 B(  3-C , 13-H ) :   0.9179
B(  3-C , 14-H ) :   0.9022 B(  4-C ,  5-C ) :   0.8841 B(  4-C ,  6-C ) :   0.8816
B(  4-C , 15-H ) :   0.9091 B(  5-C , 16-H ) :   0.9386 B(  5-C , 17-H ) :   0.9386
B(  5-C , 18-H ) :   0.9383 B(  6-C ,  7-O ) :   0.9042 B(  6-C , 19-H ) :   0.9214

MP2 TOTAL ENERGY:     -348.370607805 Eh
FINAL SINGLE POINT ENERGY      -348.370607805487

DIPOLE MOMENT
-------------
                                X             Y             Z
Electronic contribution:      0.04367      -2.64848      -2.06203
Nuclear contribution   :      0.29044       2.46456       2.69800
                        -----------------------------------------
Total Dipole Moment    :      0.33411      -0.18392       0.63597
                        -----------------------------------------
Magnitude (a.u.)       :      0.74156
Magnitude (Debye)      :      1.88490

                             ****ORCA TERMINATED NORMALLY****
TOTAL RUN TIME: 0 days 0 hours 13 minutes 12 seconds 797 msec
