                         Program Version 3.0.3 - RELEASE   -
|  1> ! RI-MP2 RIJK def2-TZVP def2-TZVP/C def2-TZVP/JK TIGHTSCF
|  2> % maxcore 2000
|  3> % mp2 density relaxed end
|  4> *xyz 0 1
|  5>  C       -0.0723334554     1.3978280224     0.0084510089
|  6>  O       -0.0256869732    -0.0321089902     0.0038856980
|  7>  C       -1.2055154661    -0.6519982895     0.0103405568
|  8>  N       -2.3605530670    -0.0180470272     0.0204253016
|  9>  N       -3.2871268456    -1.0270066938     0.0239130135
| 10>  C       -4.6606304585    -0.7875141542     0.0343543571
| 11>  O       -5.1776164321     0.2931694671     0.0413392736
| 12>  C       -2.6942749476    -2.2699197066     0.0159308291
| 13>  C       -1.3472446607    -2.0765292449     0.0070078757
| 14>  H        0.9666258397     1.7278236167     0.0019076433
| 15>  H       -0.5985710557     1.7701486896    -0.8753924562
| 16>  H       -0.5856929114     1.7648914411     0.9020167766
| 17>  H       -5.2113109674    -1.7472274664     0.0353803745
| 18>  H       -3.2902083539    -3.1692725506     0.0173984517
| 19>  H       -0.5627476752    -2.8141175736    -0.0007816443
| 20> *
| 21>
| 22>                          ****END OF INPUT****

CARTESIAN COORDINATES (ANGSTROEM)
---------------------------------
  C     -0.072333    1.397828    0.008451
  O     -0.025687   -0.032109    0.003886
  C     -1.205515   -0.651998    0.010341
  N     -2.360553   -0.018047    0.020425
  N     -3.287127   -1.027007    0.023913
  C     -4.660630   -0.787514    0.034354
  O     -5.177616    0.293169    0.041339
  C     -2.694275   -2.269920    0.015931
  C     -1.347245   -2.076529    0.007008
  H      0.966626    1.727824    0.001908
  H     -0.598571    1.770149   -0.875392
  H     -0.585693    1.764891    0.902017
  H     -5.211311   -1.747227    0.035380
  H     -3.290208   -3.169273    0.017398
  H     -0.562748   -2.814118   -0.000782

 Total Charge           Charge          ....    0
 Multiplicity           Mult            ....    1
 Number of Electrons    NEL             ....   66
 Basis Dimension        Dim             ....  315

ORBITAL ENERGIES
----------------

  NO   OCC          E(Eh)            E(eV)
   0   2.0000     -20.601752      -560.6022
   1   2.0000     -20.556093      -559.3597
   2   2.0000     -15.659821      -426.1254
   3   2.0000     -15.590173      -424.2302
   4   2.0000     -11.375877      -309.5533
   5   2.0000     -11.340899      -308.6015
   6   2.0000     -11.309044      -307.7347
   7   2.0000     -11.284394      -307.0640
   8   2.0000     -11.246777      -306.0404
   9   2.0000      -1.445770       -39.3414
  10   2.0000      -1.421255       -38.6743
  11   2.0000      -1.368364       -37.2351
  12   2.0000      -1.139430       -31.0055
  13   2.0000      -1.084063       -29.4989
  14   2.0000      -0.973286       -26.4845
  15   2.0000      -0.879045       -23.9200
  16   2.0000      -0.841591       -22.9009
  17   2.0000      -0.779085       -21.2000
  18   2.0000      -0.749462       -20.3939
  19   2.0000      -0.679899       -18.5010
  20   2.0000      -0.677099       -18.4248
  21   2.0000      -0.665434       -18.1074
  22   2.0000      -0.652967       -17.7681
  23   2.0000      -0.636762       -17.3272
  24   2.0000      -0.616926       -16.7874
  25   2.0000      -0.573157       -15.5964
  26   2.0000      -0.541965       -14.7476
  27   2.0000      -0.532638       -14.4938
  28   2.0000      -0.499353       -13.5881
  29   2.0000      -0.474751       -12.9186
  30   2.0000      -0.458358       -12.4726
  31   2.0000      -0.378888       -10.3101
  32   2.0000      -0.360083        -9.7984
  33   0.0000       0.097894         2.6638
  34   0.0000       0.138847         3.7782
  35   0.0000       0.159336         4.3358
  36   0.0000       0.164497         4.4762
  37   0.0000       0.174245         4.7414

MULLIKEN ATOMIC CHARGES
-----------------------
   0 C :   -0.212109
   1 O :   -0.275272
   2 C :    0.257427
   3 N :   -0.285629
   4 N :    0.114385
   5 C :    0.134544
   6 O :   -0.254161
   7 C :   -0.099037
   8 C :   -0.224474
   9 H :    0.146846
  10 H :    0.140494
  11 H :    0.140484
  12 H :    0.093067
  13 H :    0.166392
  14 H :    0.157044
Sum of atomic charges:   -0.0000000

LOEWDIN ATOMIC CHARGES
----------------------
   0 C :   -0.307673
   1 O :    0.239352
   2 C :   -0.389370
   3 N :    0.078449
   4 N :    0.190602
   5 C :   -0.359689
   6 O :    0.140267
   7 C :   -0.193723
   8 C :   -0.153228
   9 H :    0.114745
  10 H :    0.114238
  11 H :    0.114236
  12 H :    0.119428
  13 H :    0.143541
  14 H :    0.148826

  Mayer bond orders larger than 0.1
B(  0-C ,  1-O ) :   0.8374 B(  0-C ,  9-H ) :   0.9340 B(  0-C , 10-H ) :   0.9351
B(  0-C , 11-H ) :   0.9351 B(  1-O ,  2-C ) :   1.1306 B(  2-C ,  3-N ) :   1.4824
B(  2-C ,  8-C ) :   1.1925 B(  3-N ,  4-N ) :   0.9013 B(  3-N ,  7-C ) :   0.1053
B(  4-N ,  5-C ) :   0.9580 B(  4-N ,  7-C ) :   1.1258 B(  5-C ,  6-O ) :   2.0141
B(  5-C , 12-H ) :   0.9250 B(  7-C ,  8-C ) :   1.5437 B(  7-C , 13-H ) :   0.8966
B(  8-C , 14-H ) :   0.9155

MP2 TOTAL ENERGY:     -453.228424277 Eh
FINAL SINGLE POINT ENERGY      -453.228424277473

DIPOLE MOMENT
-------------
                                X             Y             Z
Electronic contribution:     -3.75914      -1.68923       0.02166
Nuclear contribution   :      4.29224       0.63450      -0.02872
                        -----------------------------------------
Total Dipole Moment    :      0.53310      -1.05472      -0.00705
                        -----------------------------------------
Magnitude (a.u.)       :      1.18181
Magnitude (Debye)      :      3.00393

                             ****ORCA TERMINATED NORMALLY****
TOTAL RUN TIME: 0 days 0 hours 15 minutes 34 seconds 171 msec
