                         Program Version 3.0.3 - RELEASE   -
|  1> ! RI-MP2 RIJK def2-TZVP def2-TZVP/C def2-TZVP/JK TIGHTSCF
|  2> % maxcore 2000
|  3> % mp2 density relaxed end
|  4> *xyz 0 1
|  5>  C       -0.1619050701     1.4861098729    -0.0075875036
|  6>  C       -0.0100856135    -0.0331442233    -0.0078966058
|  7>  C        1.1509129826    -0.5688520228    -0.8977790199
|  8>  O        1.5707566356     0.3296267464    -1.8985492960
|  9>  C        2.0352987920    -0.7462870875     0.3711119729
| 10>  C        0.7528283782    -0.6104614804     1.2020222913
| 11>  C        0.6117202178    -0.2627201305     2.6524310303
| 12>  C        0.2268174117    -1.6404549346     2.1588716661
| 13>  H        0.7876440077     1.9863785998     0.2018038189
| 14>  H       -0.5151411666     1.8421620449    -0.9793697280
| 15>  H       -0.8833154177     1.7974569774     0.7551474875
| 16>  H       -0.9792287077    -0.5018489498    -0.2089403717
| 17>  H        0.8888694090    -1.5451954331    -1.3290504928
| 18>  H        2.3297330942    -0.0540221328    -2.3487590798
| 19>  H        2.6066291803    -1.6744890609     0.4648550912
| 20>  H        2.7106479238     0.1066421390     0.4957242887
| 21>  H        1.5159420780    -0.1647316366     3.2451628730
| 22>  H       -0.1845996968     0.4146606145     2.9448331931
| 23>  H       -0.8293679140    -1.8895630592     2.1167975011
| 24>  H        0.8699637954    -2.4754159233     2.4203561335
| 25> *
| 26>
| 27>                          ****END OF INPUT****

CARTESIAN COORDINATES (ANGSTROEM)
---------------------------------
  C     -0.161905    1.486110   -0.007588
  C     -0.010086   -0.033144   -0.007897
  C      1.150913   -0.568852   -0.897779
  O      1.570757    0.329627   -1.898549
  C      2.035299   -0.746287    0.371112
  C      0.752828   -0.610461    1.202022
  C      0.611720   -0.262720    2.652431
  C      0.226817   -1.640455    2.158872
  H      0.787644    1.986379    0.201804
  H     -0.515141    1.842162   -0.979370
  H     -0.883315    1.797457    0.755147
  H     -0.979229   -0.501849   -0.208940
  H      0.888869   -1.545195   -1.329050
  H      2.329733   -0.054022   -2.348759
  H      2.606629   -1.674489    0.464855
  H      2.710648    0.106642    0.495724
  H      1.515942   -0.164732    3.245163
  H     -0.184600    0.414661    2.944833
  H     -0.829368   -1.889563    2.116798
  H      0.869964   -2.475416    2.420356

 Total Charge           Charge          ....    0
 Multiplicity           Mult            ....    1
 Number of Electrons    NEL             ....   62
 Basis Dimension        Dim             ....  320

ORBITAL ENERGIES
----------------

  NO   OCC          E(Eh)            E(eV)
   0   2.0000     -20.553942      -559.3012
   1   2.0000     -11.275727      -306.8281
   2   2.0000     -11.231151      -305.6151
   3   2.0000     -11.222896      -305.3905
   4   2.0000     -11.220794      -305.3333
   5   2.0000     -11.219536      -305.2991
   6   2.0000     -11.218315      -305.2659
   7   2.0000     -11.203826      -304.8716
   8   2.0000      -1.361474       -37.0476
   9   2.0000      -1.162507       -31.6334
  10   2.0000      -1.065202       -28.9856
  11   2.0000      -0.972267       -26.4567
  12   2.0000      -0.859530       -23.3890
  13   2.0000      -0.819269       -22.2934
  14   2.0000      -0.815481       -22.1904
  15   2.0000      -0.708712       -19.2850
  16   2.0000      -0.695427       -18.9235
  17   2.0000      -0.661232       -17.9930
  18   2.0000      -0.645532       -17.5658
  19   2.0000      -0.597357       -16.2549
  20   2.0000      -0.574859       -15.6427
  21   2.0000      -0.555390       -15.1129
  22   2.0000      -0.542947       -14.7743
  23   2.0000      -0.522319       -14.2130
  24   2.0000      -0.513881       -13.9834
  25   2.0000      -0.500226       -13.6119
  26   2.0000      -0.464968       -12.6524
  27   2.0000      -0.440598       -11.9893
  28   2.0000      -0.421524       -11.4703
  29   2.0000      -0.396525       -10.7900
  30   2.0000      -0.384720       -10.4688
  31   0.0000       0.132923         3.6170
  32   0.0000       0.152695         4.1551
  33   0.0000       0.159495         4.3401
  34   0.0000       0.169299         4.6069
  35   0.0000       0.182945         4.9782

MULLIKEN ATOMIC CHARGES
-----------------------
   0 C :   -0.426082
   1 C :    0.044268
   2 C :   -0.013286
   3 O :   -0.449610
   4 C :   -0.190684
   5 C :   -0.007601
   6 C :   -0.255699
   7 C :   -0.308826
   8 H :    0.130595
   9 H :    0.140498
  10 H :    0.122167
  11 H :    0.097266
  12 H :    0.081413
  13 H :    0.314708
  14 H :    0.115384
  15 H :    0.104619
  16 H :    0.123898
  17 H :    0.128265
  18 H :    0.125156
  19 H :    0.123553
Sum of atomic charges:   -0.0000000

LOEWDIN ATOMIC CHARGES
----------------------
   0 C :   -0.286827
   1 C :   -0.194257
   2 C :   -0.301679
   3 O :   -0.015610
   4 C :   -0.189115
   5 C :   -0.214027
   6 C :   -0.211131
   7 C :   -0.209016
   8 H :    0.128050
   9 H :    0.127416
  10 H :    0.121649
  11 H :    0.142934
  12 H :    0.130005
  13 H :    0.175805
  14 H :    0.125947
  15 H :    0.139236
  16 H :    0.133097
  17 H :    0.133939
  18 H :    0.132063
  19 H :    0.131521

  Mayer bond orders larger than 0.1
B(  0-C ,  1-C ) :   0.9059 B(  0-C ,  8-H ) :   0.9310 B(  0-C ,  9-H ) :   0.9349
B(  0-C , 10-H ) :   0.9389 B(  1-C ,  2-C ) :   0.9142 B(  1-C ,  5-C ) :   0.8506
B(  1-C , 11-H ) :   0.9188 B(  2-C ,  3-O ) :   1.1229 B(  2-C ,  4-C ) :   0.9480
B(  2-C , 12-H ) :   0.9557 B(  3-O , 13-H ) :   0.8444 B(  4-C ,  5-C ) :   0.9096
B(  4-C , 14-H ) :   0.9111 B(  4-C , 15-H ) :   0.8976 B(  5-C ,  6-C ) :   0.8241
B(  5-C ,  7-C ) :   0.8525 B(  6-C ,  7-C ) :   0.9387 B(  6-C , 16-H ) :   0.9255
B(  6-C , 17-H ) :   0.9256 B(  7-C , 18-H ) :   0.9243 B(  7-C , 19-H ) :   0.9233

MP2 TOTAL ENERGY:     -348.372817246 Eh
FINAL SINGLE POINT ENERGY      -348.372817245877

DIPOLE MOMENT
-------------
                                X             Y             Z
Electronic contribution:      1.39488      -1.01407      -2.91457
Nuclear contribution   :     -1.10060       0.53669       2.93012
                        -----------------------------------------
Total Dipole Moment    :      0.29428      -0.47738       0.01556
                        -----------------------------------------
Magnitude (a.u.)       :      0.56101
Magnitude (Debye)      :      1.42597

                             ****ORCA TERMINATED NORMALLY****
TOTAL RUN TIME: 0 days 0 hours 13 minutes 35 seconds 899 msec
