                         Program Version 3.0.3 - RELEASE   -
|  1> ! RI-MP2 RIJK def2-TZVP def2-TZVP/C def2-TZVP/JK TIGHTSCF
|  2> % maxcore 2000
|  3> % mp2 density relaxed end
|  4> *xyz 0 1
|  5>  O       -0.0341881813    -0.0392125293    -0.0015145733
|  6>  C        0.0028464216     1.1662423075     0.0089308638
|  7>  C        1.2357846396     1.9594773815     0.0021185002
|  8>  C        1.3902221380     3.3300865524     0.0127027137
|  9>  O        2.6871505945     3.6170799191     0.0002271249
| 10>  N        3.3760991050     2.3243415208    -0.0186779421
| 11>  N        2.5101920521     1.4319007332    -0.0169902512
| 12>  C        0.4458351860     4.3697775592     0.0325688682
| 13>  C       -0.3729515260     5.2508428147     0.0495915211
| 14>  H       -0.9177470920     1.7865455690     0.0247467187
| 15>  H       -1.0947522575     6.0317815620     0.0649961862
| 16> *
| 17>
| 18>                          ****END OF INPUT****

CARTESIAN COORDINATES (ANGSTROEM)
---------------------------------
  O     -0.034188   -0.039213   -0.001515
  C      0.002846    1.166242    0.008931
  C      1.235785    1.959477    0.002119
  C      1.390222    3.330087    0.012703
  O      2.687151    3.617080    0.000227
  N      3.376099    2.324342   -0.018678
  N      2.510192    1.431901   -0.016990
  C      0.445835    4.369778    0.032569
  C     -0.372952    5.250843    0.049592
  H     -0.917747    1.786546    0.024747
  H     -1.094752    6.031782    0.064996

 Total Charge           Charge          ....    0
 Multiplicity           Mult            ....    1
 Number of Electrons    NEL             ....   62
 Basis Dimension        Dim             ....  291

ORBITAL ENERGIES
----------------

  NO   OCC          E(Eh)            E(eV)
   0   2.0000     -20.688044      -562.9503
   1   2.0000     -20.574336      -559.8561
   2   2.0000     -15.724680      -427.8903
   3   2.0000     -15.670784      -426.4237
   4   2.0000     -11.392416      -310.0034
   5   2.0000     -11.360762      -309.1421
   6   2.0000     -11.309308      -307.7419
   7   2.0000     -11.300775      -307.5097
   8   2.0000     -11.293571      -307.3137
   9   2.0000      -1.553401       -42.2702
  10   2.0000      -1.413558       -38.4649
  11   2.0000      -1.357009       -36.9261
  12   2.0000      -1.160604       -31.5816
  13   2.0000      -1.085108       -29.5273
  14   2.0000      -0.951005       -25.8782
  15   2.0000      -0.929754       -25.2999
  16   2.0000      -0.857662       -23.3382
  17   2.0000      -0.798557       -21.7298
  18   2.0000      -0.753888       -20.5143
  19   2.0000      -0.713469       -19.4145
  20   2.0000      -0.703112       -19.1327
  21   2.0000      -0.676540       -18.4096
  22   2.0000      -0.627867       -17.0851
  23   2.0000      -0.590513       -16.0687
  24   2.0000      -0.566935       -15.4271
  25   2.0000      -0.535121       -14.5614
  26   2.0000      -0.512990       -13.9592
  27   2.0000      -0.485525       -13.2118
  28   2.0000      -0.457379       -12.4459
  29   2.0000      -0.449470       -12.2307
  30   2.0000      -0.385055       -10.4779
  31   0.0000       0.029727         0.8089
  32   0.0000       0.089119         2.4251
  33   0.0000       0.120551         3.2804
  34   0.0000       0.130672         3.5558
  35   0.0000       0.157735         4.2922

MULLIKEN ATOMIC CHARGES
-----------------------
   0 O :   -0.235170
   1 C :    0.045601
   2 C :   -0.002601
   3 C :    0.012556
   4 O :   -0.095543
   5 N :    0.005399
   6 N :   -0.057232
   7 C :    0.063226
   8 C :   -0.058894
   9 H :    0.106125
  10 H :    0.216534
Sum of atomic charges:    0.0000000

LOEWDIN ATOMIC CHARGES
----------------------
   0 O :    0.162120
   1 C :   -0.272981
   2 C :   -0.229569
   3 C :   -0.261032
   4 O :    0.292573
   5 N :    0.031927
   6 N :    0.091224
   7 C :   -0.065205
   8 C :   -0.013325
   9 H :    0.126375
  10 H :    0.137893

  Mayer bond orders larger than 0.1
B(  0-O ,  1-C ) :   2.0320 B(  1-C ,  2-C ) :   0.8460 B(  1-C ,  9-H ) :   0.9820
B(  2-C ,  3-C ) :   1.3730 B(  2-C ,  6-N ) :   1.2312 B(  3-C ,  4-O ) :   1.2076
B(  3-C ,  7-C ) :   1.1914 B(  3-C ,  8-C ) :  -0.1566 B(  4-O ,  5-N ) :   0.8096
B(  5-N ,  6-N ) :   1.4942 B(  7-C ,  8-C ) :   2.6231 B(  8-C , 10-H ) :   0.8569

MP2 TOTAL ENERGY:     -450.734816601 Eh
FINAL SINGLE POINT ENERGY      -450.734816601153

DIPOLE MOMENT
-------------
                                X             Y             Z
Electronic contribution:      3.17438      -0.92448      -0.04406
Nuclear contribution   :     -4.25520       2.52791       0.07075
                        -----------------------------------------
Total Dipole Moment    :     -1.08082       1.60343       0.02669
                        -----------------------------------------
Magnitude (a.u.)       :      1.93388
Magnitude (Debye)      :      4.91553

                             ****ORCA TERMINATED NORMALLY****
TOTAL RUN TIME: 0 days 0 hours 12 minutes 58 seconds 235 msec
