                         Program Version 3.0.3 - RELEASE   -
|  1> ! RI-MP2 RIJK def2-TZVP def2-TZVP/C def2-TZVP/JK TIGHTSCF
|  2> % maxcore 2000
|  3> % mp2 density relaxed end
|  4> *xyz 0 1
|  5>  N       -0.1125883416     1.2784334739    -0.1222100223
|  6>  C        0.0045093348     0.0428940173     0.0339823717
|  7>  O        1.1512658379    -0.6778716047     0.2054297761
|  8>  C        0.8220299907    -2.0211205430     0.5428324425
|  9>  C       -0.6405198075    -2.1393333073     0.0597189863
| 10>  O       -1.0814292992    -0.7875377681     0.0551684997
| 11>  C       -0.7568539535    -2.7381855065    -1.2808739593
| 12>  N       -0.8352322981    -3.2375983567    -2.3190495217
| 13>  H        0.7934071401     1.7365444824    -0.0659010921
| 14>  H        1.5062977164    -2.6994416120     0.0331694994
| 15>  H        0.8880849124    -2.1639383907     1.6264664702
| 16>  H       -1.2664205927    -2.7045284245     0.7541575597
| 17> *
| 18>
| 19>                          ****END OF INPUT****

CARTESIAN COORDINATES (ANGSTROEM)
---------------------------------
  N     -0.112588    1.278433   -0.122210
  C      0.004509    0.042894    0.033982
  O      1.151266   -0.677872    0.205430
  C      0.822030   -2.021121    0.542832
  C     -0.640520   -2.139333    0.059719
  O     -1.081429   -0.787538    0.055168
  C     -0.756854   -2.738186   -1.280874
  N     -0.835232   -3.237598   -2.319050
  H      0.793407    1.736544   -0.065901
  H      1.506298   -2.699442    0.033169
  H      0.888085   -2.163938    1.626466
  H     -1.266421   -2.704528    0.754158

 Total Charge           Charge          ....    0
 Multiplicity           Mult            ....    1
 Number of Electrons    NEL             ....   58
 Basis Dimension        Dim             ....  272

ORBITAL ENERGIES
----------------

  NO   OCC          E(Eh)            E(eV)
   0   2.0000     -20.642657      -561.7153
   1   2.0000     -20.639964      -561.6420
   2   2.0000     -15.602895      -424.5764
   3   2.0000     -15.548810      -423.1046
   4   2.0000     -11.415898      -310.6424
   5   2.0000     -11.381856      -309.7160
   6   2.0000     -11.348060      -308.7964
   7   2.0000     -11.298219      -307.4402
   8   2.0000      -1.529985       -41.6330
   9   2.0000      -1.416072       -38.5333
  10   2.0000      -1.248717       -33.9793
  11   2.0000      -1.227546       -33.4032
  12   2.0000      -1.085518       -29.5385
  13   2.0000      -0.954910       -25.9844
  14   2.0000      -0.856812       -23.3151
  15   2.0000      -0.806085       -21.9347
  16   2.0000      -0.760877       -20.7045
  17   2.0000      -0.710129       -19.3236
  18   2.0000      -0.686811       -18.6891
  19   2.0000      -0.669435       -18.2163
  20   2.0000      -0.627427       -17.0732
  21   2.0000      -0.592312       -16.1176
  22   2.0000      -0.586772       -15.9669
  23   2.0000      -0.580761       -15.8033
  24   2.0000      -0.519146       -14.1267
  25   2.0000      -0.497933       -13.5494
  26   2.0000      -0.488658       -13.2971
  27   2.0000      -0.468159       -12.7393
  28   2.0000      -0.420733       -11.4487
  29   0.0000       0.107138         2.9154
  30   0.0000       0.125418         3.4128
  31   0.0000       0.149936         4.0800
  32   0.0000       0.153095         4.1659
  33   0.0000       0.171518         4.6672

MULLIKEN ATOMIC CHARGES
-----------------------
   0 N :   -0.369317
   1 C :    0.278806
   2 O :   -0.264779
   3 C :   -0.060505
   4 C :    0.205266
   5 O :   -0.232047
   6 C :   -0.211998
   7 N :   -0.039672
   8 H :    0.241904
   9 H :    0.158424
  10 H :    0.130043
  11 H :    0.163875
Sum of atomic charges:   -0.0000000

LOEWDIN ATOMIC CHARGES
----------------------
   0 N :   -0.053149
   1 C :   -0.520554
   2 O :    0.240217
   3 C :   -0.234052
   4 C :   -0.279538
   5 O :    0.287855
   6 C :   -0.159412
   7 N :    0.091882
   8 H :    0.179796
   9 H :    0.142689
  10 H :    0.133559
  11 H :    0.170707

  Mayer bond orders larger than 0.1
B(  0-N ,  1-C ) :   2.0168 B(  0-N ,  8-H ) :   0.8438 B(  1-C ,  2-O ) :   1.0633
B(  1-C ,  5-O ) :   1.0427 B(  2-O ,  3-C ) :   0.9052 B(  3-C ,  4-C ) :   0.8965
B(  3-C ,  9-H ) :   0.9220 B(  3-C , 10-H ) :   0.9238 B(  4-C ,  5-O ) :   0.9120
B(  4-C ,  6-C ) :   0.9031 B(  4-C , 11-H ) :   0.9122 B(  6-C ,  7-N ) :   2.8262

MP2 TOTAL ENERGY:     -414.011363722 Eh
FINAL SINGLE POINT ENERGY      -414.011363721659

DIPOLE MOMENT
-------------
                                X             Y             Z
Electronic contribution:     -1.52115      -0.02381      -1.92776
Nuclear contribution   :      2.37637      -0.79555       3.39109
                        -----------------------------------------
Total Dipole Moment    :      0.85521      -0.81936       1.46332
                        -----------------------------------------
Magnitude (a.u.)       :      1.88257
Magnitude (Debye)      :      4.78510

                             ****ORCA TERMINATED NORMALLY****
TOTAL RUN TIME: 0 days 0 hours 8 minutes 48 seconds 864 msec
