                         Program Version 3.0.3 - RELEASE   -
|  1> ! RI-MP2 RIJK def2-TZVP def2-TZVP/C def2-TZVP/JK TIGHTSCF
|  2> % maxcore 2000
|  3> % mp2 density relaxed end
|  4> *xyz 0 1
|  5>  O       -0.1420346830     1.4004008989    -0.3242255567
|  6>  C       -0.0711588284     0.0205081394    -0.0464005532
|  7>  C       -1.4569762261    -0.6432087060     0.0125282305
|  8>  C       -1.3790853192    -2.1736829292     0.1548003402
|  9>  N       -2.6952781504    -2.7785251843    -0.0077131419
| 10>  C       -3.0650860938    -3.1739274919    -1.3642945405
| 11>  C       -2.7208569414    -4.1977575649    -0.3391993525
| 12>  C       -2.3149826873    -0.0484619073     1.1142451395
| 13>  O       -2.0731606953     0.9974351981     1.6755300598
| 14>  H       -0.6413119703     1.7837976179     0.4096396113
| 15>  H        0.5150790196    -0.4359041684    -0.8517241430
| 16>  H        0.4631874128    -0.1784245173     0.8976122758
| 17>  H       -1.9818886618    -0.4212726689    -0.9299560713
| 18>  H       -0.6467684839    -2.5635404273    -0.5754413806
| 19>  H       -1.0050390383    -2.4413604007     1.1512722795
| 20>  H       -4.0992024559    -2.9979529879    -1.6448376481
| 21>  H       -2.3402835875    -3.0054318048    -2.1596362123
| 22>  H       -1.7667089867    -4.7101445697    -0.4526627545
| 23>  H       -3.4986152243    -4.7828645072     0.1424835970
| 24>  H       -3.2065745287    -0.6466645983     1.3885855812
| 25> *
| 26>
| 27>                          ****END OF INPUT****

CARTESIAN COORDINATES (ANGSTROEM)
---------------------------------
  O     -0.142035    1.400401   -0.324226
  C     -0.071159    0.020508   -0.046401
  C     -1.456976   -0.643209    0.012528
  C     -1.379085   -2.173683    0.154800
  N     -2.695278   -2.778525   -0.007713
  C     -3.065086   -3.173927   -1.364295
  C     -2.720857   -4.197758   -0.339199
  C     -2.314983   -0.048462    1.114245
  O     -2.073161    0.997435    1.675530
  H     -0.641312    1.783798    0.409640
  H      0.515079   -0.435904   -0.851724
  H      0.463187   -0.178425    0.897612
  H     -1.981889   -0.421273   -0.929956
  H     -0.646768   -2.563540   -0.575441
  H     -1.005039   -2.441360    1.151272
  H     -4.099202   -2.997953   -1.644838
  H     -2.340284   -3.005432   -2.159636
  H     -1.766709   -4.710145   -0.452663
  H     -3.498615   -4.782865    0.142484
  H     -3.206575   -0.646665    1.388586

 Total Charge           Charge          ....    0
 Multiplicity           Mult            ....    1
 Number of Electrons    NEL             ....   70
 Basis Dimension        Dim             ....  345

ORBITAL ENERGIES
----------------

  NO   OCC          E(Eh)            E(eV)
   0   2.0000     -20.564389      -559.5855
   1   2.0000     -20.543827      -559.0260
   2   2.0000     -15.578225      -423.9051
   3   2.0000     -11.336418      -308.4796
   4   2.0000     -11.280998      -306.9716
   5   2.0000     -11.277946      -306.8885
   6   2.0000     -11.270616      -306.6891
   7   2.0000     -11.269895      -306.6694
   8   2.0000     -11.249447      -306.1130
   9   2.0000      -1.404073       -38.2068
  10   2.0000      -1.352539       -36.8044
  11   2.0000      -1.293043       -35.1855
  12   2.0000      -1.093938       -29.7676
  13   2.0000      -0.971427       -26.4339
  14   2.0000      -0.893737       -24.3198
  15   2.0000      -0.859507       -23.3884
  16   2.0000      -0.838636       -22.8205
  17   2.0000      -0.779856       -21.2209
  18   2.0000      -0.711296       -19.3554
  19   2.0000      -0.697272       -18.9737
  20   2.0000      -0.673547       -18.3282
  21   2.0000      -0.662515       -18.0280
  22   2.0000      -0.635738       -17.2993
  23   2.0000      -0.605382       -16.4733
  24   2.0000      -0.589910       -16.0523
  25   2.0000      -0.574406       -15.6304
  26   2.0000      -0.552778       -15.0418
  27   2.0000      -0.542854       -14.7718
  28   2.0000      -0.520319       -14.1586
  29   2.0000      -0.506483       -13.7821
  30   2.0000      -0.482725       -13.1356
  31   2.0000      -0.469111       -12.7652
  32   2.0000      -0.437704       -11.9105
  33   2.0000      -0.421919       -11.4810
  34   2.0000      -0.391139       -10.6434
  35   0.0000       0.113204         3.0804
  36   0.0000       0.143191         3.8964
  37   0.0000       0.148496         4.0408
  38   0.0000       0.164494         4.4761
  39   0.0000       0.170814         4.6481

MULLIKEN ATOMIC CHARGES
-----------------------
   0 O :   -0.480560
   1 C :   -0.027912
   2 C :   -0.050299
   3 C :   -0.191044
   4 N :   -0.228792
   5 C :   -0.191569
   6 C :   -0.176381
   7 C :    0.098717
   8 O :   -0.315683
   9 H :    0.335018
  10 H :    0.112539
  11 H :    0.101587
  12 H :    0.118226
  13 H :    0.109026
  14 H :    0.136421
  15 H :    0.136890
  16 H :    0.128438
  17 H :    0.125333
  18 H :    0.136102
  19 H :    0.123942
Sum of atomic charges:   -0.0000000

LOEWDIN ATOMIC CHARGES
----------------------
   0 O :   -0.042298
   1 C :   -0.329008
   2 C :   -0.270131
   3 C :   -0.269742
   4 N :    0.088592
   5 C :   -0.267702
   6 C :   -0.265081
   7 C :   -0.255885
   8 O :    0.116349
   9 H :    0.174437
  10 H :    0.129488
  11 H :    0.122000
  12 H :    0.173089
  13 H :    0.130095
  14 H :    0.140162
  15 H :    0.125844
  16 H :    0.123999
  17 H :    0.124131
  18 H :    0.126158
  19 H :    0.125503

  Mayer bond orders larger than 0.1
B(  0-O ,  1-C ) :   0.9597 B(  0-O ,  9-H ) :   0.8180 B(  1-C ,  2-C ) :   0.9285
B(  1-C , 10-H ) :   0.9282 B(  1-C , 11-H ) :   0.9270 B(  2-C ,  3-C ) :   0.9056
B(  2-C ,  7-C ) :   0.8732 B(  2-C , 12-H ) :   0.8815 B(  3-C ,  4-N ) :   0.8700
B(  3-C , 13-H ) :   0.9181 B(  3-C , 14-H ) :   0.9138 B(  4-N ,  5-C ) :   0.8778
B(  4-N ,  6-C ) :   0.8921 B(  5-C ,  6-C ) :   0.9393 B(  5-C , 15-H ) :   0.9283
B(  5-C , 16-H ) :   0.9225 B(  6-C , 17-H ) :   0.9257 B(  6-C , 18-H ) :   0.9273
B(  7-C ,  8-O ) :   1.8879 B(  7-C , 19-H ) :   0.9379

MP2 TOTAL ENERGY:     -439.533271203 Eh
FINAL SINGLE POINT ENERGY      -439.533271203293

DIPOLE MOMENT
-------------
                                X             Y             Z
Electronic contribution:     -0.98597       6.07726       3.14485
Nuclear contribution   :      0.80991      -7.58721      -3.50401
                        -----------------------------------------
Total Dipole Moment    :     -0.17606      -1.50995      -0.35916
                        -----------------------------------------
Magnitude (a.u.)       :      1.56203
Magnitude (Debye)      :      3.97037

                             ****ORCA TERMINATED NORMALLY****
TOTAL RUN TIME: 0 days 0 hours 17 minutes 37 seconds 905 msec
