                         Program Version 3.0.3 - RELEASE   -
|  1> ! RI-MP2 RIJK def2-TZVP def2-TZVP/C def2-TZVP/JK TIGHTSCF
|  2> % maxcore 2000
|  3> % mp2 density relaxed end
|  4> *xyz 0 1
|  5>  C       -0.0663038076     1.5352451752    -0.0514787685
|  6>  C       -0.0708249405     0.0260848706     0.0306507511
|  7>  C       -1.1936446522    -0.6947304126    -0.6790094891
|  8>  O        1.2301539371    -0.5908191864    -0.1114870353
|  9>  C        0.6208571635    -0.6354375582     1.1514513243
| 10>  C        1.1936589489    -0.1363994369     2.4760577969
| 11>  O        0.7156807043    -1.3664243690     3.1130129427
| 12>  C        0.2530982091    -1.8926646329     1.9246628278
| 13>  O       -0.2447205805    -2.9536153707     1.7336652662
| 14>  H        0.8104338612     1.9556766777     0.4466825601
| 15>  H       -0.0505063670     1.8547171664    -1.0987283757
| 16>  H       -0.9681509672     1.9491711316     0.4112098422
| 17>  H       -1.1515105581    -0.4852022921    -1.7530103236
| 18>  H       -1.1222639327    -1.7726063573    -0.5243804237
| 19>  H       -2.1640426203    -0.3504533780    -0.3069287382
| 20>  H        2.2828143743    -0.0699983375     2.5164934430
| 21>  H        0.7267389177     0.7421805701     2.9258254098
| 22> *
| 23>
| 24>                          ****END OF INPUT****

CARTESIAN COORDINATES (ANGSTROEM)
---------------------------------
  C     -0.066304    1.535245   -0.051479
  C     -0.070825    0.026085    0.030651
  C     -1.193645   -0.694730   -0.679009
  O      1.230154   -0.590819   -0.111487
  C      0.620857   -0.635438    1.151451
  C      1.193659   -0.136399    2.476058
  O      0.715681   -1.366424    3.113013
  C      0.253098   -1.892665    1.924663
  O     -0.244721   -2.953615    1.733665
  H      0.810434    1.955677    0.446683
  H     -0.050506    1.854717   -1.098728
  H     -0.968151    1.949171    0.411210
  H     -1.151511   -0.485202   -1.753010
  H     -1.122264   -1.772606   -0.524380
  H     -2.164043   -0.350453   -0.306929
  H      2.282814   -0.069998    2.516493
  H      0.726739    0.742181    2.925825

 Total Charge           Charge          ....    0
 Multiplicity           Mult            ....    1
 Number of Electrons    NEL             ....   68
 Basis Dimension        Dim             ....  327

ORBITAL ENERGIES
----------------

  NO   OCC          E(Eh)            E(eV)
   0   2.0000     -20.612045      -560.8822
   1   2.0000     -20.599151      -560.5314
   2   2.0000     -20.564565      -559.5903
   3   2.0000     -11.392496      -310.0056
   4   2.0000     -11.326639      -308.2135
   5   2.0000     -11.325745      -308.1892
   6   2.0000     -11.318491      -307.9918
   7   2.0000     -11.247907      -306.0711
   8   2.0000     -11.236966      -305.7734
   9   2.0000      -1.477570       -40.2067
  10   2.0000      -1.442342       -39.2481
  11   2.0000      -1.390437       -37.8357
  12   2.0000      -1.066545       -29.0222
  13   2.0000      -1.023053       -27.8387
  14   2.0000      -0.973410       -26.4878
  15   2.0000      -0.924769       -25.1642
  16   2.0000      -0.837350       -22.7855
  17   2.0000      -0.732017       -19.9192
  18   2.0000      -0.717446       -19.5227
  19   2.0000      -0.703469       -19.1424
  20   2.0000      -0.694728       -18.9045
  21   2.0000      -0.648193       -17.6382
  22   2.0000      -0.638872       -17.3846
  23   2.0000      -0.603147       -16.4125
  24   2.0000      -0.582570       -15.8525
  25   2.0000      -0.578217       -15.7341
  26   2.0000      -0.564636       -15.3645
  27   2.0000      -0.556735       -15.1495
  28   2.0000      -0.543376       -14.7860
  29   2.0000      -0.524796       -14.2804
  30   2.0000      -0.487987       -13.2788
  31   2.0000      -0.477204       -12.9854
  32   2.0000      -0.453074       -12.3288
  33   2.0000      -0.433608       -11.7991
  34   0.0000       0.118527         3.2253
  35   0.0000       0.136699         3.7198
  36   0.0000       0.154839         4.2134
  37   0.0000       0.164659         4.4806
  38   0.0000       0.180917         4.9230

MULLIKEN ATOMIC CHARGES
-----------------------
   0 C :   -0.402515
   1 C :    0.181052
   2 C :   -0.401740
   3 O :   -0.317857
   4 C :    0.013261
   5 C :   -0.007675
   6 O :   -0.234209
   7 C :    0.289297
   8 O :   -0.257511
   9 H :    0.142742
  10 H :    0.146456
  11 H :    0.141860
  12 H :    0.140273
  13 H :    0.173335
  14 H :    0.133562
  15 H :    0.131147
  16 H :    0.128522
Sum of atomic charges:   -0.0000000

LOEWDIN ATOMIC CHARGES
----------------------
   0 C :   -0.258951
   1 C :   -0.310188
   2 C :   -0.255401
   3 O :    0.231494
   4 C :   -0.269088
   5 C :   -0.195101
   6 O :    0.235671
   7 C :   -0.420950
   8 O :    0.168459
   9 H :    0.133261
  10 H :    0.135780
  11 H :    0.134956
  12 H :    0.133727
  13 H :    0.141678
  14 H :    0.134742
  15 H :    0.131572
  16 H :    0.128338

  Mayer bond orders larger than 0.1
B(  0-C ,  1-C ) :   0.9001 B(  0-C ,  9-H ) :   0.9383 B(  0-C , 10-H ) :   0.9317
B(  0-C , 11-H ) :   0.9278 B(  1-C ,  2-C ) :   0.8987 B(  1-C ,  3-O ) :   0.8407
B(  1-C ,  4-C ) :   0.9145 B(  2-C , 12-H ) :   0.9299 B(  2-C , 13-H ) :   0.9305
B(  2-C , 14-H ) :   0.9254 B(  3-O ,  4-C ) :   0.9376 B(  4-C ,  5-C ) :   0.9278
B(  4-C ,  7-C ) :   0.8773 B(  5-C ,  6-O ) :   0.8980 B(  5-C , 15-H ) :   0.9086
B(  5-C , 16-H ) :   0.9123 B(  6-O ,  7-C ) :   1.0943 B(  7-C ,  8-O ) :   2.0293

MP2 TOTAL ENERGY:     -458.233267923 Eh
FINAL SINGLE POINT ENERGY      -458.233267923369

DIPOLE MOMENT
-------------
                                X             Y             Z
Electronic contribution:      3.36714      -7.50782       5.25072
Nuclear contribution   :     -3.53813       9.18943      -5.52824
                        -----------------------------------------
Total Dipole Moment    :     -0.17100       1.68161      -0.27751
                        -----------------------------------------
Magnitude (a.u.)       :      1.71291
Magnitude (Debye)      :      4.35387

                             ****ORCA TERMINATED NORMALLY****
TOTAL RUN TIME: 0 days 0 hours 18 minutes 24 seconds 125 msec
