                         Program Version 3.0.3 - RELEASE   -
|  1> ! RI-MP2 RIJK def2-TZVP def2-TZVP/C def2-TZVP/JK TIGHTSCF
|  2> % maxcore 2000
|  3> % mp2 density relaxed end
|  4> *xyz 0 1
|  5>  C        0.0480489652     1.5601879242    -0.1044509852
|  6>  C        0.0021983607     0.0418204561     0.0211743618
|  7>  O        0.5340955852    -0.3970536444     1.2734744973
|  8>  C       -1.4467955878    -0.5352828702     0.0263265143
|  9>  C       -1.4256106272    -2.0746520511    -0.0163142316
| 10>  O       -2.1290937528    -0.0686705074     1.1786996012
| 11>  C       -2.1786764669    -0.0304044000    -1.1519173927
| 12>  N       -2.7204322183     0.3358282021    -2.1038646327
| 13>  H        1.0789551528     1.9170060349     0.0008866672
| 14>  H       -0.3163333113     1.8832490011    -1.0826143611
| 15>  H       -0.5704167881     2.0237594261     0.6684651833
| 16>  H        0.5563922036    -0.4239542440    -0.8061817314
| 17>  H        1.2811369631     0.1648356930     1.4993257412
| 18>  H       -0.8321551138    -2.4449063938     0.8222337075
| 19>  H       -2.4452171337    -2.4555936650     0.0670441671
| 20>  H       -0.9854926014    -2.4387408710    -0.9491112043
| 21>  H       -1.4850362194    -0.1662609906     1.8948683880
| 22> *
| 23>
| 24>                          ****END OF INPUT****

CARTESIAN COORDINATES (ANGSTROEM)
---------------------------------
  C      0.048049    1.560188   -0.104451
  C      0.002198    0.041820    0.021174
  O      0.534096   -0.397054    1.273474
  C     -1.446796   -0.535283    0.026327
  C     -1.425611   -2.074652   -0.016314
  O     -2.129094   -0.068671    1.178700
  C     -2.178676   -0.030404   -1.151917
  N     -2.720432    0.335828   -2.103865
  H      1.078955    1.917006    0.000887
  H     -0.316333    1.883249   -1.082614
  H     -0.570417    2.023759    0.668465
  H      0.556392   -0.423954   -0.806182
  H      1.281137    0.164836    1.499326
  H     -0.832155   -2.444906    0.822234
  H     -2.445217   -2.455594    0.067044
  H     -0.985493   -2.438741   -0.949111
  H     -1.485036   -0.166261    1.894868

 Total Charge           Charge          ....    0
 Multiplicity           Mult            ....    1
 Number of Electrons    NEL             ....   62
 Basis Dimension        Dim             ....  302

ORBITAL ENERGIES
----------------

  NO   OCC          E(Eh)            E(eV)
   0   2.0000     -20.591424      -560.3211
   1   2.0000     -20.577403      -559.9396
   2   2.0000     -15.574422      -423.8016
   3   2.0000     -11.343703      -308.6778
   4   2.0000     -11.316990      -307.9510
   5   2.0000     -11.272400      -306.7376
   6   2.0000     -11.238851      -305.8247
   7   2.0000     -11.237647      -305.7919
   8   2.0000      -1.412752       -38.4429
   9   2.0000      -1.378583       -37.5132
  10   2.0000      -1.220904       -33.2225
  11   2.0000      -1.085622       -29.5413
  12   2.0000      -1.018944       -27.7269
  13   2.0000      -0.910538       -24.7770
  14   2.0000      -0.866137       -23.5688
  15   2.0000      -0.737767       -20.0757
  16   2.0000      -0.708469       -19.2784
  17   2.0000      -0.669170       -18.2090
  18   2.0000      -0.666191       -18.1280
  19   2.0000      -0.642300       -17.4779
  20   2.0000      -0.593438       -16.1483
  21   2.0000      -0.577103       -15.7038
  22   2.0000      -0.566734       -15.4216
  23   2.0000      -0.555718       -15.1219
  24   2.0000      -0.550754       -14.9868
  25   2.0000      -0.539528       -14.6813
  26   2.0000      -0.513609       -13.9760
  27   2.0000      -0.487917       -13.2769
  28   2.0000      -0.480363       -13.0713
  29   2.0000      -0.468229       -12.7412
  30   2.0000      -0.444443       -12.0939
  31   0.0000       0.112476         3.0606
  32   0.0000       0.146070         3.9748
  33   0.0000       0.159552         4.3416
  34   0.0000       0.173066         4.7094
  35   0.0000       0.180956         4.9241

MULLIKEN ATOMIC CHARGES
-----------------------
   0 C :   -0.415983
   1 C :    0.008826
   2 O :   -0.491554
   3 C :    0.350263
   4 C :   -0.402134
   5 O :   -0.458865
   6 C :   -0.189891
   7 N :   -0.052928
   8 H :    0.132223
   9 H :    0.162107
  10 H :    0.150627
  11 H :    0.099391
  12 H :    0.328665
  13 H :    0.154224
  14 H :    0.155155
  15 H :    0.133355
  16 H :    0.336521
Sum of atomic charges:   -0.0000000

LOEWDIN ATOMIC CHARGES
----------------------
   0 C :   -0.295848
   1 C :   -0.325275
   2 O :   -0.021259
   3 C :   -0.384882
   4 C :   -0.250694
   5 O :    0.032472
   6 C :   -0.138754
   7 N :    0.075477
   8 H :    0.124095
   9 H :    0.139341
  10 H :    0.133260
  11 H :    0.144607
  12 H :    0.180335
  13 H :    0.133783
  14 H :    0.135270
  15 H :    0.132648
  16 H :    0.185423

  Mayer bond orders larger than 0.1
B(  0-C ,  1-C ) :   0.9483 B(  0-C ,  8-H ) :   0.9338 B(  0-C ,  9-H ) :   0.9227
B(  0-C , 10-H ) :   0.9235 B(  1-C ,  2-O ) :   0.9491 B(  1-C ,  3-C ) :   0.8904
B(  1-C , 11-H ) :   0.9212 B(  2-O , 12-H ) :   0.8377 B(  3-C ,  4-C ) :   0.9161
B(  3-C ,  5-O ) :   1.0015 B(  3-C ,  6-C ) :   0.8562 B(  4-C , 13-H ) :   0.9246
B(  4-C , 14-H ) :   0.9356 B(  4-C , 15-H ) :   0.9204 B(  5-O , 16-H ) :   0.8108
B(  6-C ,  7-N ) :   2.8621

MP2 TOTAL ENERGY:     -400.375853843 Eh
FINAL SINGLE POINT ENERGY      -400.375853842874

DIPOLE MOMENT
-------------
                                X             Y             Z
Electronic contribution:     -4.18643       0.42932      -1.38085
Nuclear contribution   :      5.85794      -0.56087       2.21654
                        -----------------------------------------
Total Dipole Moment    :      1.67151      -0.13155       0.83569
                        -----------------------------------------
Magnitude (a.u.)       :      1.87340
Magnitude (Debye)      :      4.76181

                             ****ORCA TERMINATED NORMALLY****
TOTAL RUN TIME: 0 days 0 hours 13 minutes 1 seconds 764 msec
