                         Program Version 3.0.3 - RELEASE   -
|  1> ! RI-MP2 RIJK def2-TZVP def2-TZVP/C def2-TZVP/JK TIGHTSCF
|  2> % maxcore 2000
|  3> % mp2 density relaxed end
|  4> *xyz 0 1
|  5>  O        0.1793537398     1.3593279233    -0.0417947828
|  6>  C        0.0627470988    -0.0467392572     0.1123526957
|  7>  C       -1.3698324877    -0.4970515232     0.1045585550
|  8>  C       -2.3952743122    -0.1370014878     1.1972075739
|  9>  C       -2.8650198666    -1.6072050788     1.1526067352
| 10>  O       -3.5747693232    -2.2630940565     1.8609270799
| 11>  C       -1.9342442857    -1.9690191105     0.0302524154
| 12>  C       -2.0849601795    -0.9644930418    -1.1048295571
| 13>  O       -3.3047387358    -0.3885117701    -1.4589774870
| 14>  H       -0.2530995652     1.6015789769    -0.8677667419
| 15>  H        0.6285667834    -0.5909931343    -0.6610979893
| 16>  H        0.5272058192    -0.2751246998     1.0777150444
| 17>  H       -1.9341449945     0.0901236312     2.1626348434
| 18>  H       -3.1289752457     0.6300057097     0.9466320607
| 19>  H       -1.4351634169    -2.9195719096    -0.1201499748
| 20>  H       -1.4375038471    -1.2066140778    -1.9508664749
| 21>  H       -3.8757120910    -1.0772140336    -1.8161502758
| 22> *
| 23>
| 24>                          ****END OF INPUT****

CARTESIAN COORDINATES (ANGSTROEM)
---------------------------------
  O      0.179354    1.359328   -0.041795
  C      0.062747   -0.046739    0.112353
  C     -1.369832   -0.497052    0.104559
  C     -2.395274   -0.137001    1.197208
  C     -2.865020   -1.607205    1.152607
  O     -3.574769   -2.263094    1.860927
  C     -1.934244   -1.969019    0.030252
  C     -2.084960   -0.964493   -1.104830
  O     -3.304739   -0.388512   -1.458977
  H     -0.253100    1.601579   -0.867767
  H      0.628567   -0.590993   -0.661098
  H      0.527206   -0.275125    1.077715
  H     -1.934145    0.090124    2.162635
  H     -3.128975    0.630006    0.946632
  H     -1.435163   -2.919572   -0.120150
  H     -1.437504   -1.206614   -1.950866
  H     -3.875712   -1.077214   -1.816150

 Total Charge           Charge          ....    0
 Multiplicity           Mult            ....    1
 Number of Electrons    NEL             ....   68
 Basis Dimension        Dim             ....  327

ORBITAL ENERGIES
----------------

  NO   OCC          E(Eh)            E(eV)
   0   2.0000     -20.587286      -560.2085
   1   2.0000     -20.570547      -559.7530
   2   2.0000     -20.549453      -559.1790
   3   2.0000     -11.339104      -308.5527
   4   2.0000     -11.320971      -308.0593
   5   2.0000     -11.298466      -307.4469
   6   2.0000     -11.272543      -306.7415
   7   2.0000     -11.260437      -306.4121
   8   2.0000     -11.246134      -306.0229
   9   2.0000      -1.402469       -38.1631
  10   2.0000      -1.392144       -37.8822
  11   2.0000      -1.375114       -37.4188
  12   2.0000      -1.208608       -32.8879
  13   2.0000      -0.995650       -27.0930
  14   2.0000      -0.976316       -26.5669
  15   2.0000      -0.884028       -24.0556
  16   2.0000      -0.786757       -21.4088
  17   2.0000      -0.752558       -20.4781
  18   2.0000      -0.717588       -19.5266
  19   2.0000      -0.703649       -19.1473
  20   2.0000      -0.680625       -18.5207
  21   2.0000      -0.655262       -17.8306
  22   2.0000      -0.636591       -17.3225
  23   2.0000      -0.623281       -16.9603
  24   2.0000      -0.605004       -16.4630
  25   2.0000      -0.587573       -15.9887
  26   2.0000      -0.553065       -15.0497
  27   2.0000      -0.528451       -14.3799
  28   2.0000      -0.517465       -14.0809
  29   2.0000      -0.505380       -13.7521
  30   2.0000      -0.465794       -12.6749
  31   2.0000      -0.440487       -11.9863
  32   2.0000      -0.415673       -11.3110
  33   2.0000      -0.398801       -10.8519
  34   0.0000       0.118783         3.2323
  35   0.0000       0.133061         3.6208
  36   0.0000       0.136153         3.7049
  37   0.0000       0.156477         4.2580
  38   0.0000       0.168793         4.5931

MULLIKEN ATOMIC CHARGES
-----------------------
   0 O :   -0.455128
   1 C :   -0.004254
   2 C :   -0.045628
   3 C :   -0.141305
   4 C :    0.102965
   5 O :   -0.259016
   6 C :   -0.162893
   7 C :   -0.002919
   8 O :   -0.458269
   9 H :    0.319820
  10 H :    0.101002
  11 H :    0.119893
  12 H :    0.136423
  13 H :    0.142765
  14 H :    0.153278
  15 H :    0.120249
  16 H :    0.333017
Sum of atomic charges:   -0.0000000

LOEWDIN ATOMIC CHARGES
----------------------
   0 O :   -0.037277
   1 C :   -0.309644
   2 C :   -0.182118
   3 C :   -0.152507
   4 C :   -0.307628
   5 O :    0.158144
   6 C :   -0.108573
   7 C :   -0.287317
   8 O :    0.011289
   9 H :    0.177683
  10 H :    0.124967
  11 H :    0.137581
  12 H :    0.152773
  13 H :    0.144851
  14 H :    0.144314
  15 H :    0.146149
  16 H :    0.187313

  Mayer bond orders larger than 0.1
B(  0-O ,  1-C ) :   0.9112 B(  0-O ,  9-H ) :   0.8426 B(  1-C ,  2-C ) :   0.9662
B(  1-C , 10-H ) :   0.9183 B(  1-C , 11-H ) :   0.9243 B(  2-C ,  3-C ) :   0.9142
B(  2-C ,  6-C ) :   0.7701 B(  2-C ,  7-C ) :   0.8601 B(  3-C ,  4-C ) :   0.9308
B(  3-C ,  6-C ) :  -0.1143 B(  3-C , 12-H ) :   0.8977 B(  3-C , 13-H ) :   0.8903
B(  4-C ,  5-O ) :   2.0321 B(  4-C ,  6-C ) :   0.8947 B(  6-C ,  7-C ) :   0.8455
B(  6-C , 14-H ) :   0.9010 B(  7-C ,  8-O ) :   1.0818 B(  7-C , 15-H ) :   0.9616
B(  8-O , 16-H ) :   0.8345

MP2 TOTAL ENERGY:     -458.208580990 Eh
FINAL SINGLE POINT ENERGY      -458.208580989700

DIPOLE MOMENT
-------------
                                X             Y             Z
Electronic contribution:     -3.60692      -1.85377       1.25375
Nuclear contribution   :      4.12340       1.60111      -2.47032
                        -----------------------------------------
Total Dipole Moment    :      0.51647      -0.25265      -1.21657
                        -----------------------------------------
Magnitude (a.u.)       :      1.34559
Magnitude (Debye)      :      3.42023

                             ****ORCA TERMINATED NORMALLY****
TOTAL RUN TIME: 0 days 0 hours 16 minutes 40 seconds 111 msec
