                         Program Version 3.0.3 - RELEASE   -
|  1> ! RI-MP2 RIJK def2-TZVP def2-TZVP/C def2-TZVP/JK TIGHTSCF
|  2> % maxcore 2000
|  3> % mp2 density relaxed end
|  4> *xyz 0 1
|  5>  C        0.0080921882     1.5462784253    -0.0615467993
|  6>  C        0.0026230029     0.0165746338    -0.0061933058
|  7>  C       -1.3935241375    -0.5853317953     0.0663727625
|  8>  O       -2.1180779321    -0.1460224560    -1.1099878471
|  9>  C       -3.2120518012    -0.8638868528    -1.4554907197
| 10>  N       -3.6468611708    -1.9517375052    -0.9771348914
| 11>  C       -2.8774652292    -2.5803226675     0.0987329912
| 12>  C       -1.4181547927    -2.1188005130     0.1342229650
| 13>  O       -0.6535250329    -2.7035919503    -0.9115135272
| 14>  H        1.0316199243     1.9284381517    -0.1148330690
| 15>  H       -0.5358277370     1.9072846936    -0.9379554286
| 16>  H       -0.4636943249     1.9793319890     0.8277908367
| 17>  H        0.5092659463    -0.4077069982    -0.8780750776
| 18>  H        0.5551737400    -0.3313787688     0.8755830934
| 19>  H       -1.9279848618    -0.1888879176     0.9423050450
| 20>  H       -3.7294137462    -0.3742273158    -2.2793967346
| 21>  H       -3.3706656749    -2.3736867196     1.0572151033
| 22>  H       -2.9098690683    -3.6656012598    -0.0441145804
| 23>  H       -0.9372038314    -2.4383055337     1.0650181829
| 24>  H       -1.1520257108    -2.6112083700    -1.7313151392
| 25> *
| 26>
| 27>                          ****END OF INPUT****

CARTESIAN COORDINATES (ANGSTROEM)
---------------------------------
  C      0.008092    1.546278   -0.061547
  C      0.002623    0.016575   -0.006193
  C     -1.393524   -0.585332    0.066373
  O     -2.118078   -0.146022   -1.109988
  C     -3.212052   -0.863887   -1.455491
  N     -3.646861   -1.951738   -0.977135
  C     -2.877465   -2.580323    0.098733
  C     -1.418155   -2.118801    0.134223
  O     -0.653525   -2.703592   -0.911514
  H      1.031620    1.928438   -0.114833
  H     -0.535828    1.907285   -0.937955
  H     -0.463694    1.979332    0.827791
  H      0.509266   -0.407707   -0.878075
  H      0.555174   -0.331379    0.875583
  H     -1.927985   -0.188888    0.942305
  H     -3.729414   -0.374227   -2.279397
  H     -3.370666   -2.373687    1.057215
  H     -2.909869   -3.665601   -0.044115
  H     -0.937204   -2.438306    1.065018
  H     -1.152026   -2.611208   -1.731315

 Total Charge           Charge          ....    0
 Multiplicity           Mult            ....    1
 Number of Electrons    NEL             ....   70
 Basis Dimension        Dim             ....  345

ORBITAL ENERGIES
----------------

  NO   OCC          E(Eh)            E(eV)
   0   2.0000     -20.598462      -560.5126
   1   2.0000     -20.562577      -559.5362
   2   2.0000     -15.551087      -423.1666
   3   2.0000     -11.336880      -308.4922
   4   2.0000     -11.297869      -307.4306
   5   2.0000     -11.291190      -307.2489
   6   2.0000     -11.260064      -306.4019
   7   2.0000     -11.228155      -305.5336
   8   2.0000     -11.216986      -305.2297
   9   2.0000      -1.433448       -39.0061
  10   2.0000      -1.368610       -37.2418
  11   2.0000      -1.220724       -33.2176
  12   2.0000      -1.086938       -29.5771
  13   2.0000      -1.017622       -27.6909
  14   2.0000      -0.931525       -25.3481
  15   2.0000      -0.885835       -24.1048
  16   2.0000      -0.831459       -22.6252
  17   2.0000      -0.758031       -20.6271
  18   2.0000      -0.724096       -19.7037
  19   2.0000      -0.689547       -18.7635
  20   2.0000      -0.663774       -18.0622
  21   2.0000      -0.639257       -17.3951
  22   2.0000      -0.623616       -16.9695
  23   2.0000      -0.602072       -16.3832
  24   2.0000      -0.589340       -16.0368
  25   2.0000      -0.579057       -15.7569
  26   2.0000      -0.549160       -14.9434
  27   2.0000      -0.529886       -14.4189
  28   2.0000      -0.519605       -14.1392
  29   2.0000      -0.508965       -13.8497
  30   2.0000      -0.493237       -13.4217
  31   2.0000      -0.481476       -13.1016
  32   2.0000      -0.453625       -12.3438
  33   2.0000      -0.405191       -11.0258
  34   2.0000      -0.392801       -10.6887
  35   0.0000       0.126160         3.4330
  36   0.0000       0.149204         4.0600
  37   0.0000       0.156593         4.2611
  38   0.0000       0.168443         4.5836
  39   0.0000       0.181486         4.9385

MULLIKEN ATOMIC CHARGES
-----------------------
   0 C :   -0.390594
   1 C :   -0.153909
   2 C :   -0.011164
   3 O :   -0.256926
   4 C :    0.059317
   5 N :   -0.272712
   6 C :   -0.135737
   7 C :    0.051734
   8 O :   -0.461078
   9 H :    0.136983
  10 H :    0.143410
  11 H :    0.117352
  12 H :    0.124151
  13 H :    0.105037
  14 H :    0.092758
  15 H :    0.139060
  16 H :    0.124076
  17 H :    0.146024
  18 H :    0.114922
  19 H :    0.327295
Sum of atomic charges:    0.0000000

LOEWDIN ATOMIC CHARGES
----------------------
   0 C :   -0.316697
   1 C :   -0.270041
   2 C :   -0.272541
   3 O :    0.242792
   4 C :   -0.374599
   5 N :    0.060604
   6 C :   -0.282152
   7 C :   -0.335223
   8 O :   -0.006333
   9 H :    0.122509
  10 H :    0.125047
  11 H :    0.120292
  12 H :    0.145067
  13 H :    0.144380
  14 H :    0.149445
  15 H :    0.134185
  16 H :    0.139736
  17 H :    0.141087
  18 H :    0.151856
  19 H :    0.180588

  Mayer bond orders larger than 0.1
B(  0-C ,  1-C ) :   0.9142 B(  0-C ,  9-H ) :   0.9422 B(  0-C , 10-H ) :   0.9383
B(  0-C , 11-H ) :   0.9348 B(  1-C ,  2-C ) :   0.9343 B(  1-C , 12-H ) :   0.9221
B(  1-C , 13-H ) :   0.9252 B(  2-C ,  3-O ) :   0.8514 B(  2-C ,  7-C ) :   0.9005
B(  2-C , 14-H ) :   0.9265 B(  3-O ,  4-C ) :   1.0803 B(  4-C ,  5-N ) :   1.8290
B(  4-C , 15-H ) :   0.9277 B(  5-N ,  6-C ) :   0.9177 B(  6-C ,  7-C ) :   0.9380
B(  6-C , 16-H ) :   0.9178 B(  6-C , 17-H ) :   0.9355 B(  7-C ,  8-O ) :   0.9149
B(  7-C , 18-H ) :   0.9167 B(  8-O , 19-H ) :   0.8350

MP2 TOTAL ENERGY:     -439.583648478 Eh
FINAL SINGLE POINT ENERGY      -439.583648477978

DIPOLE MOMENT
-------------
                                X             Y             Z
Electronic contribution:     -4.85989      -4.17643      -3.30721
Nuclear contribution   :      5.06426       4.57167       3.78946
                        -----------------------------------------
Total Dipole Moment    :      0.20437       0.39523       0.48225
                        -----------------------------------------
Magnitude (a.u.)       :      0.65615
Magnitude (Debye)      :      1.66781

                             ****ORCA TERMINATED NORMALLY****
TOTAL RUN TIME: 0 days 0 hours 29 minutes 48 seconds 851 msec
