                         Program Version 3.0.3 - RELEASE   -
|  1> ! RI-MP2 RIJK def2-TZVP def2-TZVP/C def2-TZVP/JK TIGHTSCF
|  2> % maxcore 2000
|  3> % mp2 density relaxed end
|  4> *xyz 0 1
|  5>  C        0.2459550816     1.6435149398    -0.1126633927
|  6>  C       -0.0466771941     0.1771996347    -0.1174872057
|  7>  C        0.3630381496    -0.8750670815    -1.0816351786
|  8>  N        0.8380283053    -0.8781591573     0.4152944109
|  9>  C       -0.2498885058    -1.2829844231     1.4355119220
| 10>  C       -1.2101745753    -0.6157071566     0.4720950004
| 11>  C       -1.8753150944    -1.3590767306    -0.4472954018
| 12>  C       -0.9179357174    -1.5273031983    -1.5945836717
| 13>  O       -1.0318952240    -2.1906011956    -2.5938025086
| 14>  H        1.2705300958     1.8213592003    -0.4504988408
| 15>  H       -0.4384441516     2.1766653071    -0.7799528427
| 16>  H        0.1376631709     2.0640553971     0.8924383941
| 17>  H        1.2294125420    -0.7909002266    -1.7281360697
| 18>  H       -0.3846406888    -2.3500606038     1.6271831599
| 19>  H        0.0167503586    -0.7457399409     2.3484387676
| 20>  H       -2.5066383125    -2.2059308647    -0.1941899925
| 21> *
| 22>
| 23>                          ****END OF INPUT****

CARTESIAN COORDINATES (ANGSTROEM)
---------------------------------
  C      0.245955    1.643515   -0.112663
  C     -0.046677    0.177200   -0.117487
  C      0.363038   -0.875067   -1.081635
  N      0.838028   -0.878159    0.415294
  C     -0.249889   -1.282984    1.435512
  C     -1.210175   -0.615707    0.472095
  C     -1.875315   -1.359077   -0.447295
  C     -0.917936   -1.527303   -1.594584
  O     -1.031895   -2.190601   -2.593803
  H      1.270530    1.821359   -0.450499
  H     -0.438444    2.176665   -0.779953
  H      0.137663    2.064055    0.892438
  H      1.229413   -0.790900   -1.728136
  H     -0.384641   -2.350061    1.627183
  H      0.016750   -0.745740    2.348439
  H     -2.506638   -2.205931   -0.194190

 Total Charge           Charge          ....    0
 Multiplicity           Mult            ....    1
 Number of Electrons    NEL             ....   64
 Basis Dimension        Dim             ....  321

ORBITAL ENERGIES
----------------

  NO   OCC          E(Eh)            E(eV)
   0   2.0000     -20.548119      -559.1428
   1   2.0000     -15.605367      -424.6436
   2   2.0000     -11.347833      -308.7902
   3   2.0000     -11.307092      -307.6816
   4   2.0000     -11.297336      -307.4161
   5   2.0000     -11.291008      -307.2439
   6   2.0000     -11.290602      -307.2329
   7   2.0000     -11.249923      -306.1260
   8   2.0000     -11.247031      -306.0473
   9   2.0000      -1.394007       -37.9329
  10   2.0000      -1.331606       -36.2348
  11   2.0000      -1.089526       -29.6475
  12   2.0000      -1.044967       -28.4350
  13   2.0000      -1.008732       -27.4490
  14   2.0000      -0.873559       -23.7708
  15   2.0000      -0.856870       -23.3166
  16   2.0000      -0.770688       -20.9715
  17   2.0000      -0.725619       -19.7451
  18   2.0000      -0.677364       -18.4320
  19   2.0000      -0.649244       -17.6668
  20   2.0000      -0.632887       -17.2217
  21   2.0000      -0.612997       -16.6805
  22   2.0000      -0.606199       -16.4955
  23   2.0000      -0.592816       -16.1313
  24   2.0000      -0.581894       -15.8341
  25   2.0000      -0.549446       -14.9512
  26   2.0000      -0.516226       -14.0472
  27   2.0000      -0.476538       -12.9673
  28   2.0000      -0.469969       -12.7885
  29   2.0000      -0.416248       -11.3267
  30   2.0000      -0.403432       -10.9779
  31   2.0000      -0.346790        -9.4366
  32   0.0000       0.046206         1.2573
  33   0.0000       0.128606         3.4996
  34   0.0000       0.142104         3.8669
  35   0.0000       0.160458         4.3663
  36   0.0000       0.173948         4.7334

MULLIKEN ATOMIC CHARGES
-----------------------
   0 C :   -0.409719
   1 C :    0.183954
   2 C :   -0.175549
   3 N :   -0.208333
   4 C :   -0.140920
   5 C :    0.067853
   6 C :   -0.222985
   7 C :    0.175042
   8 O :   -0.268253
   9 H :    0.149499
  10 H :    0.149315
  11 H :    0.140999
  12 H :    0.141146
  13 H :    0.130548
  14 H :    0.146546
  15 H :    0.140858
Sum of atomic charges:    0.0000000

LOEWDIN ATOMIC CHARGES
----------------------
   0 C :   -0.258740
   1 C :   -0.239948
   2 C :   -0.127495
   3 N :    0.175699
   4 C :   -0.171936
   5 C :   -0.101067
   6 C :   -0.092475
   7 C :   -0.322855
   8 O :    0.155564
   9 H :    0.138773
  10 H :    0.137833
  11 H :    0.134404
  12 H :    0.152855
  13 H :    0.129548
  14 H :    0.140999
  15 H :    0.148840

  Mayer bond orders larger than 0.1
B(  0-C ,  1-C ) :   0.8308 B(  0-C ,  9-H ) :   0.9389 B(  0-C , 10-H ) :   0.9329
B(  0-C , 11-H ) :   0.9364 B(  1-C ,  2-C ) :   0.7849 B(  1-C ,  3-N ) :   0.8249
B(  1-C ,  5-C ) :   0.8583 B(  2-C ,  3-N ) :   0.8702 B(  2-C ,  7-C ) :   0.9428
B(  2-C , 12-H ) :   0.9270 B(  3-N ,  4-C ) :   0.8681 B(  4-C ,  5-C ) :   0.9572
B(  4-C , 13-H ) :   0.9126 B(  4-C , 14-H ) :   0.9170 B(  5-C ,  6-C ) :   1.5321
B(  6-C ,  7-C ) :   1.0019 B(  6-C , 15-H ) :   0.9291 B(  7-C ,  8-O ) :   1.9475

MP2 TOTAL ENERGY:     -399.955310481 Eh
FINAL SINGLE POINT ENERGY      -399.955310481151

DIPOLE MOMENT
-------------
                                X             Y             Z
Electronic contribution:     -2.00079      -4.30252      -3.25457
Nuclear contribution   :      2.06301       5.01830       4.36399
                        -----------------------------------------
Total Dipole Moment    :      0.06222       0.71578       1.10941
                        -----------------------------------------
Magnitude (a.u.)       :      1.32174
Magnitude (Debye)      :      3.35961

                             ****ORCA TERMINATED NORMALLY****
TOTAL RUN TIME: 0 days 0 hours 18 minutes 53 seconds 559 msec
