                         Program Version 3.0.3 - RELEASE   -
|  1> ! RI-MP2 RIJK def2-TZVP def2-TZVP/C def2-TZVP/JK TIGHTSCF
|  2> % maxcore 2000
|  3> % mp2 density relaxed end
|  4> *xyz 0 1
|  5>  C       -0.0196890275     1.4859654403     0.0580334095
|  6>  C       -0.1515436693    -0.0199904629     0.1941350363
|  7>  O        0.9371945413    -0.4902452731     0.9882344432
|  8>  C        0.9212225054    -1.8703190917     1.1810950439
|  9>  C        2.0289124746    -2.3735715909     2.1465341699
| 10>  N        0.9568839529    -2.9304162760     2.9795437236
| 11>  C       -0.0863706115    -2.4225877482     2.2454152072
| 12>  O       -1.2781151695    -2.4067192631     2.4061449417
| 13>  H        0.9315614587     1.7495955327    -0.4132075790
| 14>  H       -0.8339346358     1.8821483163    -0.5558152329
| 15>  H       -0.0616223554     1.9654286421     1.0400325288
| 16>  H       -1.1031442439    -0.2946797574     0.6666288293
| 17>  H       -0.1195760493    -0.5061968978    -0.7950701269
| 18>  H        0.8728361453    -2.4189383956     0.2282472419
| 19>  H        2.7226500252    -3.1163092237     1.7428443615
| 20>  H        2.5785449772    -1.5488789250     2.6088806414
| 21>  H        0.9769310816    -3.3686233162     3.8885907406
| 22> *
| 23>
| 24>                          ****END OF INPUT****

CARTESIAN COORDINATES (ANGSTROEM)
---------------------------------
  C     -0.019689    1.485965    0.058033
  C     -0.151544   -0.019990    0.194135
  O      0.937195   -0.490245    0.988234
  C      0.921223   -1.870319    1.181095
  C      2.028912   -2.373572    2.146534
  N      0.956884   -2.930416    2.979544
  C     -0.086371   -2.422588    2.245415
  O     -1.278115   -2.406719    2.406145
  H      0.931561    1.749596   -0.413208
  H     -0.833935    1.882148   -0.555815
  H     -0.061622    1.965429    1.040033
  H     -1.103144   -0.294680    0.666629
  H     -0.119576   -0.506197   -0.795070
  H      0.872836   -2.418938    0.228247
  H      2.722650   -3.116309    1.742844
  H      2.578545   -1.548879    2.608881
  H      0.976931   -3.368623    3.888591

 Total Charge           Charge          ....    0
 Multiplicity           Mult            ....    1
 Number of Electrons    NEL             ....   62
 Basis Dimension        Dim             ....  302

ORBITAL ENERGIES
----------------

  NO   OCC          E(Eh)            E(eV)
   0   2.0000     -20.570529      -559.7526
   1   2.0000     -20.529380      -558.6328
   2   2.0000     -15.589293      -424.2062
   3   2.0000     -11.351020      -308.8770
   4   2.0000     -11.305185      -307.6297
   5   2.0000     -11.281251      -306.9784
   6   2.0000     -11.278083      -306.8922
   7   2.0000     -11.217099      -305.2328
   8   2.0000      -1.403113       -38.1807
   9   2.0000      -1.380313       -37.5602
  10   2.0000      -1.267858       -34.5002
  11   2.0000      -1.036837       -28.2138
  12   2.0000      -0.975027       -26.5318
  13   2.0000      -0.900205       -24.4958
  14   2.0000      -0.844371       -22.9765
  15   2.0000      -0.786406       -21.3992
  16   2.0000      -0.702929       -19.1277
  17   2.0000      -0.682587       -18.5741
  18   2.0000      -0.676621       -18.4118
  19   2.0000      -0.634259       -17.2591
  20   2.0000      -0.610364       -16.6088
  21   2.0000      -0.601618       -16.3709
  22   2.0000      -0.570050       -15.5118
  23   2.0000      -0.548084       -14.9141
  24   2.0000      -0.537542       -14.6273
  25   2.0000      -0.519011       -14.1230
  26   2.0000      -0.501458       -13.6454
  27   2.0000      -0.491068       -13.3626
  28   2.0000      -0.463417       -12.6102
  29   2.0000      -0.403080       -10.9684
  30   2.0000      -0.395819       -10.7708
  31   0.0000       0.136648         3.7184
  32   0.0000       0.144242         3.9250
  33   0.0000       0.157994         4.2992
  34   0.0000       0.170719         4.6455
  35   0.0000       0.188791         5.1373

MULLIKEN ATOMIC CHARGES
-----------------------
   0 C :   -0.361190
   1 C :   -0.071315
   2 O :   -0.303308
   3 C :    0.064458
   4 C :   -0.079717
   5 N :   -0.318491
   6 C :    0.196591
   7 O :   -0.319305
   8 H :    0.126791
   9 H :    0.125362
  10 H :    0.132362
  11 H :    0.135930
  12 H :    0.090263
  13 H :    0.094376
  14 H :    0.120997
  15 H :    0.127973
  16 H :    0.238222
Sum of atomic charges:    0.0000000

LOEWDIN ATOMIC CHARGES
----------------------
   0 C :   -0.316312
   1 C :   -0.332053
   2 O :    0.182594
   3 C :   -0.280834
   4 C :   -0.222129
   5 N :    0.120418
   6 C :   -0.430110
   7 O :    0.100051
   8 H :    0.123209
   9 H :    0.126122
  10 H :    0.125092
  11 H :    0.128387
  12 H :    0.117603
  13 H :    0.136087
  14 H :    0.122306
  15 H :    0.129710
  16 H :    0.169860

  Mayer bond orders larger than 0.1
B(  0-C ,  1-C ) :   0.9482 B(  0-C ,  8-H ) :   0.9346 B(  0-C ,  9-H ) :   0.9325
B(  0-C , 10-H ) :   0.9363 B(  1-C ,  2-O ) :   0.8851 B(  1-C , 11-H ) :   0.9250
B(  1-C , 12-H ) :   0.9242 B(  2-O ,  3-C ) :   0.9707 B(  3-C ,  4-C ) :   0.9092
B(  3-C ,  6-C ) :   0.8430 B(  3-C , 13-H ) :   0.9008 B(  4-C ,  5-N ) :   0.9076
B(  4-C , 14-H ) :   0.9257 B(  4-C , 15-H ) :   0.9242 B(  5-N ,  6-C ) :   1.1803
B(  5-N , 16-H ) :   0.8592 B(  6-C ,  7-O ) :   1.9940

MP2 TOTAL ENERGY:     -400.354567628 Eh
FINAL SINGLE POINT ENERGY      -400.354567628355

DIPOLE MOMENT
-------------
                                X             Y             Z
Electronic contribution:     -1.12551      -6.28005       4.76317
Nuclear contribution   :      2.18602       6.09017      -4.89196
                        -----------------------------------------
Total Dipole Moment    :      1.06052      -0.18988      -0.12880
                        -----------------------------------------
Magnitude (a.u.)       :      1.08505
Magnitude (Debye)      :      2.75798

                             ****ORCA TERMINATED NORMALLY****
TOTAL RUN TIME: 0 days 0 hours 11 minutes 40 seconds 642 msec
