                         Program Version 3.0.3 - RELEASE   -
|  1> ! RI-MP2 RIJK def2-TZVP def2-TZVP/C def2-TZVP/JK TIGHTSCF
|  2> % maxcore 2000
|  3> % mp2 density relaxed end
|  4> *xyz 0 1
|  5>  C        0.0369085587     1.4355070436    -0.1269790877
|  6>  N       -0.0360421412     0.0131068112     0.1226792035
|  7>  C       -1.2240365063    -0.6828902445     0.0776415591
|  8>  N       -1.1267543117    -2.0212969527    -0.0029847833
|  9>  C       -2.2491596467    -2.7247049538    -0.0046478513
| 10>  C       -3.4996781585    -2.1007421001     0.0697679343
| 11>  O       -4.6254464462    -2.8538036852     0.0686063491
| 12>  N       -3.6114106073    -0.7838087243     0.1351018780
| 13>  C       -2.4847924022    -0.0681517527     0.1366216024
| 14>  H        1.0851680070     1.7403456810    -0.1212663252
| 15>  H       -0.4053494654     1.7318805357    -1.0910088897
| 16>  H       -0.4725993700     1.9980525894     0.6641397767
| 17>  H        0.7542668757    -0.5466085452    -0.1573411713
| 18>  H       -2.1740062023    -3.8062923104    -0.0703517883
| 19>  H       -5.3642233383    -2.2327681243     0.1213458976
| 20>  H       -2.5921947352     1.0101513622     0.1875989860
| 21> *
| 22>
| 23>                          ****END OF INPUT****

CARTESIAN COORDINATES (ANGSTROEM)
---------------------------------
  C      0.036909    1.435507   -0.126979
  N     -0.036042    0.013107    0.122679
  C     -1.224037   -0.682890    0.077642
  N     -1.126754   -2.021297   -0.002985
  C     -2.249160   -2.724705   -0.004648
  C     -3.499678   -2.100742    0.069768
  O     -4.625446   -2.853804    0.068606
  N     -3.611411   -0.783809    0.135102
  C     -2.484792   -0.068152    0.136622
  H      1.085168    1.740346   -0.121266
  H     -0.405349    1.731881   -1.091009
  H     -0.472599    1.998053    0.664140
  H      0.754267   -0.546609   -0.157341
  H     -2.174006   -3.806292   -0.070352
  H     -5.364223   -2.232768    0.121346
  H     -2.592195    1.010151    0.187599

 Total Charge           Charge          ....    0
 Multiplicity           Mult            ....    1
 Number of Electrons    NEL             ....   66
 Basis Dimension        Dim             ....  321

ORBITAL ENERGIES
----------------

  NO   OCC          E(Eh)            E(eV)
   0   2.0000     -20.590114      -560.2855
   1   2.0000     -15.584996      -424.0893
   2   2.0000     -15.580288      -423.9612
   3   2.0000     -15.569640      -423.6714
   4   2.0000     -11.328197      -308.2559
   5   2.0000     -11.311466      -307.8007
   6   2.0000     -11.278442      -306.9020
   7   2.0000     -11.273598      -306.7702
   8   2.0000     -11.266741      -306.5836
   9   2.0000      -1.421190       -38.6725
  10   2.0000      -1.310039       -35.6480
  11   2.0000      -1.239720       -33.7345
  12   2.0000      -1.197562       -32.5873
  13   2.0000      -1.028250       -27.9801
  14   2.0000      -0.943120       -25.6636
  15   2.0000      -0.911960       -24.8157
  16   2.0000      -0.850916       -23.1546
  17   2.0000      -0.762103       -20.7379
  18   2.0000      -0.729621       -19.8540
  19   2.0000      -0.696993       -18.9661
  20   2.0000      -0.654202       -17.8017
  21   2.0000      -0.633939       -17.2504
  22   2.0000      -0.629223       -17.1220
  23   2.0000      -0.610206       -16.6046
  24   2.0000      -0.595329       -16.1997
  25   2.0000      -0.567912       -15.4537
  26   2.0000      -0.550953       -14.9922
  27   2.0000      -0.539261       -14.6740
  28   2.0000      -0.490350       -13.3431
  29   2.0000      -0.450271       -12.2525
  30   2.0000      -0.418202       -11.3799
  31   2.0000      -0.415119       -11.2960
  32   2.0000      -0.292398        -7.9566
  33   0.0000       0.084685         2.3044
  34   0.0000       0.136154         3.7049
  35   0.0000       0.152263         4.1433
  36   0.0000       0.157036         4.2732
  37   0.0000       0.165002         4.4899

MULLIKEN ATOMIC CHARGES
-----------------------
   0 C :   -0.302045
   1 N :   -0.323255
   2 C :    0.256034
   3 N :   -0.274356
   4 C :   -0.076665
   5 C :    0.279736
   6 O :   -0.424384
   7 N :   -0.279123
   8 C :   -0.129970
   9 H :    0.146298
  10 H :    0.135030
  11 H :    0.140555
  12 H :    0.240377
  13 H :    0.138858
  14 H :    0.335842
  15 H :    0.137066
Sum of atomic charges:    0.0000000

LOEWDIN ATOMIC CHARGES
----------------------
   0 C :   -0.330596
   1 N :    0.056906
   2 C :   -0.316961
   3 N :    0.154384
   4 C :   -0.197692
   5 C :   -0.385054
   6 O :    0.071570
   7 N :    0.136267
   8 C :   -0.207891
   9 H :    0.122574
  10 H :    0.110112
  11 H :    0.117556
  12 H :    0.186243
  13 H :    0.145325
  14 H :    0.195860
  15 H :    0.141397

  Mayer bond orders larger than 0.1
B(  0-C ,  1-N ) :   0.9107 B(  0-C ,  9-H ) :   0.9341 B(  0-C , 10-H ) :   0.9315
B(  0-C , 11-H ) :   0.9315 B(  1-N ,  2-C ) :   1.1217 B(  1-N , 12-H ) :   0.8627
B(  2-C ,  3-N ) :   1.3103 B(  2-C ,  8-C ) :   1.2785 B(  3-N ,  4-C ) :   1.4469
B(  4-C ,  5-C ) :   1.2702 B(  4-C , 13-H ) :   0.9296 B(  5-C ,  6-O ) :   1.1070
B(  5-C ,  7-N ) :   1.3533 B(  6-O , 14-H ) :   0.8136 B(  7-N ,  8-C ) :   1.4088
B(  8-C , 15-H ) :   0.9318

MP2 TOTAL ENERGY:     -433.395037775 Eh
FINAL SINGLE POINT ENERGY      -433.395037775298

DIPOLE MOMENT
-------------
                                X             Y             Z
Electronic contribution:     -4.79560      -6.11620       0.55217
Nuclear contribution   :      5.18625       6.94203      -0.75340
                        -----------------------------------------
Total Dipole Moment    :      0.39065       0.82584      -0.20122
                        -----------------------------------------
Magnitude (a.u.)       :      0.93547
Magnitude (Debye)      :      2.37778

                             ****ORCA TERMINATED NORMALLY****
TOTAL RUN TIME: 0 days 0 hours 14 minutes 30 seconds 803 msec
