                         Program Version 3.0.3 - RELEASE   -
|  1> ! RI-MP2 RIJK def2-TZVP def2-TZVP/C def2-TZVP/JK TIGHTSCF
|  2> % maxcore 2000
|  3> % mp2 density relaxed end
|  4> *xyz 0 1
|  5>  C       -0.0069890543     1.5080520000     0.0318042519
|  6>  C       -0.0137740297    -0.0247617467     0.0080401913
|  7>  C       -1.4459254599    -0.5433415230    -0.1130568721
|  8>  O       -1.9790162299    -0.0860155544    -1.3501438435
|  9>  C        0.9593169693    -0.6115047187    -1.0781337047
| 10>  C        1.9733883414    -1.2715059205    -0.1222019718
| 11>  C        1.0947837715    -2.0619604712     0.8694362145
| 12>  C        0.7499683711    -0.6012993149     1.2383267009
| 13>  O        2.1329070587    -0.2489306926     0.9164419694
| 14>  H        1.0128505251     1.8774320322     0.1567336477
| 15>  H       -0.4206134021     1.9065551502    -0.8976599649
| 16>  H       -0.6166695207     1.8896751044     0.8601518031
| 17>  H       -1.4682972681    -1.6419502438    -0.0674027024
| 18>  H       -2.0423755225    -0.1667001022     0.7348536260
| 19>  H       -2.8895493766    -0.3878377032    -1.4150554451
| 20>  H        0.4733103214    -1.3240906248    -1.7494931671
| 21>  H        1.4226951019     0.1703817675    -1.6834012923
| 22>  H        2.9148307735    -1.6482231809    -0.5224218161
| 23>  H        0.3234091179    -2.7358862311     0.4903424327
| 24>  H        1.6908770088    -2.5386474343     1.6481277268
| 25>  H        0.4337317530    -0.2888964119     2.2349627556
| 26> *
| 27>
| 28>                          ****END OF INPUT****

CARTESIAN COORDINATES (ANGSTROEM)
---------------------------------
  C     -0.006989    1.508052    0.031804
  C     -0.013774   -0.024762    0.008040
  C     -1.445925   -0.543342   -0.113057
  O     -1.979016   -0.086016   -1.350144
  C      0.959317   -0.611505   -1.078134
  C      1.973388   -1.271506   -0.122202
  C      1.094784   -2.061960    0.869436
  C      0.749968   -0.601299    1.238327
  O      2.132907   -0.248931    0.916442
  H      1.012851    1.877432    0.156734
  H     -0.420613    1.906555   -0.897660
  H     -0.616670    1.889675    0.860152
  H     -1.468297   -1.641950   -0.067403
  H     -2.042376   -0.166700    0.734854
  H     -2.889549   -0.387838   -1.415055
  H      0.473310   -1.324091   -1.749493
  H      1.422695    0.170382   -1.683401
  H      2.914831   -1.648223   -0.522422
  H      0.323409   -2.735886    0.490342
  H      1.690877   -2.538647    1.648128
  H      0.433732   -0.288896    2.234963

 Total Charge           Charge          ....    0
 Multiplicity           Mult            ....    1
 Number of Electrons    NEL             ....   70
 Basis Dimension        Dim             ....  351

ORBITAL ENERGIES
----------------

  NO   OCC          E(Eh)            E(eV)
   0   2.0000     -20.559006      -559.4390
   1   2.0000     -20.542996      -559.0033
   2   2.0000     -11.284194      -307.0585
   3   2.0000     -11.283353      -307.0356
   4   2.0000     -11.278252      -306.8968
   5   2.0000     -11.235549      -305.7348
   6   2.0000     -11.228445      -305.5415
   7   2.0000     -11.218213      -305.2631
   8   2.0000     -11.200996      -304.7946
   9   2.0000      -1.384379       -37.6709
  10   2.0000      -1.362984       -37.0887
  11   2.0000      -1.096589       -29.8397
  12   2.0000      -1.010150       -27.4876
  13   2.0000      -0.961121       -26.1534
  14   2.0000      -0.917311       -24.9613
  15   2.0000      -0.880310       -23.9544
  16   2.0000      -0.766095       -20.8465
  17   2.0000      -0.732538       -19.9334
  18   2.0000      -0.704534       -19.1713
  19   2.0000      -0.689718       -18.7682
  20   2.0000      -0.643275       -17.5044
  21   2.0000      -0.634141       -17.2558
  22   2.0000      -0.612705       -16.6725
  23   2.0000      -0.578396       -15.7389
  24   2.0000      -0.551673       -15.0118
  25   2.0000      -0.541963       -14.7476
  26   2.0000      -0.529838       -14.4176
  27   2.0000      -0.514808       -14.0086
  28   2.0000      -0.489499       -13.3200
  29   2.0000      -0.482128       -13.1194
  30   2.0000      -0.463949       -12.6247
  31   2.0000      -0.459135       -12.4937
  32   2.0000      -0.440384       -11.9834
  33   2.0000      -0.435823       -11.8594
  34   2.0000      -0.405999       -11.0478
  35   0.0000       0.128836         3.5058
  36   0.0000       0.155056         4.2193
  37   0.0000       0.162628         4.4253
  38   0.0000       0.168336         4.5806
  39   0.0000       0.184347         5.0163

MULLIKEN ATOMIC CHARGES
-----------------------
   0 C :   -0.473163
   1 C :    0.154482
   2 C :   -0.111339
   3 O :   -0.468594
   4 C :   -0.259932
   5 C :    0.010960
   6 C :   -0.219855
   7 C :    0.010687
   8 O :   -0.320709
   9 H :    0.154632
  10 H :    0.154948
  11 H :    0.114335
  12 H :    0.096070
  13 H :    0.102435
  14 H :    0.314691
  15 H :    0.125888
  16 H :    0.125334
  17 H :    0.124948
  18 H :    0.112786
  19 H :    0.123362
  20 H :    0.128036
Sum of atomic charges:    0.0000000

LOEWDIN ATOMIC CHARGES
----------------------
   0 C :   -0.271219
   1 C :   -0.274149
   2 C :   -0.309256
   3 O :   -0.040517
   4 C :   -0.183002
   5 C :   -0.253700
   6 C :   -0.206817
   7 C :   -0.219333
   8 O :    0.156075
   9 H :    0.130987
  10 H :    0.130678
  11 H :    0.123168
  12 H :    0.117096
  13 H :    0.120566
  14 H :    0.172203
  15 H :    0.141026
  16 H :    0.141417
  17 H :    0.128800
  18 H :    0.123817
  19 H :    0.139200
  20 H :    0.132959

  Mayer bond orders larger than 0.1
B(  0-C ,  1-C ) :   0.8784 B(  0-C ,  9-H ) :   0.9371 B(  0-C , 10-H ) :   0.9365
B(  0-C , 11-H ) :   0.9331 B(  1-C ,  2-C ) :   0.9124 B(  1-C ,  4-C ) :   0.9221
B(  1-C ,  7-C ) :   0.9246 B(  2-C ,  3-O ) :   1.0350 B(  2-C , 12-H ) :   0.9198
B(  2-C , 13-H ) :   0.9256 B(  3-O , 14-H ) :   0.8476 B(  4-C ,  5-C ) :   0.9446
B(  4-C , 15-H ) :   0.9081 B(  4-C , 16-H ) :   0.9214 B(  5-C ,  6-C ) :   0.9475
B(  5-C ,  8-O ) :   0.9169 B(  5-C , 17-H ) :   0.9188 B(  6-C ,  7-C ) :   0.9272
B(  6-C , 18-H ) :   0.9183 B(  6-C , 19-H ) :   0.9231 B(  7-C ,  8-O ) :   0.9133
B(  7-C , 20-H ) :   0.8984

MP2 TOTAL ENERGY:     -423.506873851 Eh
FINAL SINGLE POINT ENERGY      -423.506873850566

DIPOLE MOMENT
-------------
                                X             Y             Z
Electronic contribution:      2.17306      -0.87821       0.52747
Nuclear contribution   :     -3.00804       0.12962      -0.45634
                        -----------------------------------------
Total Dipole Moment    :     -0.83499      -0.74859       0.07112
                        -----------------------------------------
Magnitude (a.u.)       :      1.12368
Magnitude (Debye)      :      2.85616

                             ****ORCA TERMINATED NORMALLY****
TOTAL RUN TIME: 0 days 0 hours 19 minutes 12 seconds 146 msec
