                         Program Version 3.0.3 - RELEASE   -
|  1> ! RI-MP2 RIJK def2-TZVP def2-TZVP/C def2-TZVP/JK TIGHTSCF
|  2> % maxcore 2000
|  3> % mp2 density relaxed end
|  4> *xyz 0 1
|  5>  C       -0.0384204038     1.5460787666     0.0145652065
|  6>  C        0.1125489774     0.0530544327     0.0189420447
|  7>  N       -0.7578267944    -0.8248354989     0.8522670356
|  8>  C        0.6974546927    -0.7914410760     1.0890507005
|  9>  C        1.4090407936    -1.9727543619     0.4423066879
| 10>  N        1.1184700867    -1.7834153045    -0.9708320606
| 11>  C        0.4230392458    -0.6489491909    -1.2932234130
| 12>  O        0.1323593257    -0.2690729536    -2.4068580400
| 13>  H        0.8719233922     2.0319481894    -0.3501534383
| 14>  H       -0.8552925284     1.8375501372    -0.6523353178
| 15>  H       -0.2504828760     1.9251359969     1.0194778160
| 16>  H       -1.2160665976    -0.2388667476     1.5492891774
| 17>  H        1.0846167217    -0.3750494312     2.0120887747
| 18>  H        2.4887339526    -1.9381162242     0.6394227634
| 19>  H        1.0173833458    -2.9271628870     0.8137785168
| 20>  H        1.3369243961    -2.4662389371    -1.6778895737
| 21> *
| 22>
| 23>                          ****END OF INPUT****

CARTESIAN COORDINATES (ANGSTROEM)
---------------------------------
  C     -0.038420    1.546079    0.014565
  C      0.112549    0.053054    0.018942
  N     -0.757827   -0.824835    0.852267
  C      0.697455   -0.791441    1.089051
  C      1.409041   -1.972754    0.442307
  N      1.118470   -1.783415   -0.970832
  C      0.423039   -0.648949   -1.293223
  O      0.132359   -0.269073   -2.406858
  H      0.871923    2.031948   -0.350153
  H     -0.855293    1.837550   -0.652335
  H     -0.250483    1.925136    1.019478
  H     -1.216067   -0.238867    1.549289
  H      1.084617   -0.375049    2.012089
  H      2.488734   -1.938116    0.639423
  H      1.017383   -2.927163    0.813779
  H      1.336924   -2.466239   -1.677890

 Total Charge           Charge          ....    0
 Multiplicity           Mult            ....    1
 Number of Electrons    NEL             ....   60
 Basis Dimension        Dim             ....  296

ORBITAL ENERGIES
----------------

  NO   OCC          E(Eh)            E(eV)
   0   2.0000     -20.515988      -558.2684
   1   2.0000     -15.580357      -423.9631
   2   2.0000     -15.576315      -423.8531
   3   2.0000     -11.344897      -308.7103
   4   2.0000     -11.281418      -306.9830
   5   2.0000     -11.280983      -306.9712
   6   2.0000     -11.279780      -306.9384
   7   2.0000     -11.234243      -305.6993
   8   2.0000      -1.381473       -37.5918
   9   2.0000      -1.299707       -35.3668
  10   2.0000      -1.220110       -33.2009
  11   2.0000      -1.014802       -27.6142
  12   2.0000      -0.983825       -26.7712
  13   2.0000      -0.915464       -24.9110
  14   2.0000      -0.819323       -22.2949
  15   2.0000      -0.758457       -20.6387
  16   2.0000      -0.708457       -19.2781
  17   2.0000      -0.676491       -18.4083
  18   2.0000      -0.644118       -17.5273
  19   2.0000      -0.613786       -16.7020
  20   2.0000      -0.603959       -16.4346
  21   2.0000      -0.590142       -16.0586
  22   2.0000      -0.557446       -15.1689
  23   2.0000      -0.549966       -14.9653
  24   2.0000      -0.538380       -14.6501
  25   2.0000      -0.493083       -13.4175
  26   2.0000      -0.476314       -12.9612
  27   2.0000      -0.431305       -11.7364
  28   2.0000      -0.393194       -10.6993
  29   2.0000      -0.382407       -10.4058
  30   0.0000       0.126922         3.4537
  31   0.0000       0.145066         3.9475
  32   0.0000       0.162089         4.4107
  33   0.0000       0.163538         4.4501
  34   0.0000       0.186506         5.0751

MULLIKEN ATOMIC CHARGES
-----------------------
   0 C :   -0.373405
   1 C :    0.174258
   2 N :   -0.390865
   3 C :   -0.140799
   4 C :   -0.044137
   5 N :   -0.314987
   6 C :    0.170465
   7 O :   -0.341038
   8 H :    0.140927
   9 H :    0.159699
  10 H :    0.122176
  11 H :    0.217322
  12 H :    0.145465
  13 H :    0.113707
  14 H :    0.122110
  15 H :    0.239100
Sum of atomic charges:   -0.0000000

LOEWDIN ATOMIC CHARGES
----------------------
   0 C :   -0.264759
   1 C :   -0.262194
   2 N :    0.033251
   3 C :   -0.230602
   4 C :   -0.246561
   5 N :    0.127868
   6 C :   -0.411948
   7 O :    0.091104
   8 H :    0.136748
   9 H :    0.140409
  10 H :    0.127344
  11 H :    0.170972
  12 H :    0.139172
  13 H :    0.130764
  14 H :    0.135241
  15 H :    0.183193

  Mayer bond orders larger than 0.1
B(  0-C ,  1-C ) :   0.9196 B(  0-C ,  8-H ) :   0.9220 B(  0-C ,  9-H ) :   0.9352
B(  0-C , 10-H ) :   0.9316 B(  1-C ,  2-N ) :   0.8120 B(  1-C ,  3-C ) :   0.8868
B(  1-C ,  6-C ) :   0.8832 B(  2-N ,  3-C ) :   0.9971 B(  2-N , 11-H ) :   0.8664
B(  3-C ,  4-C ) :   0.9394 B(  3-C , 12-H ) :   0.9156 B(  4-C ,  5-N ) :   0.9089
B(  4-C , 13-H ) :   0.9296 B(  4-C , 14-H ) :   0.9112 B(  5-N ,  6-C ) :   1.2165
B(  5-N , 15-H ) :   0.8668 B(  6-C ,  7-O ) :   2.0144

MP2 TOTAL ENERGY:     -379.310371689 Eh
FINAL SINGLE POINT ENERGY      -379.310371688794

DIPOLE MOMENT
-------------
                                X             Y             Z
Electronic contribution:     -0.53562      -2.44306      -3.88857
Nuclear contribution   :      1.31981       2.31569       5.36175
                        -----------------------------------------
Total Dipole Moment    :      0.78419      -0.12737       1.47318
                        -----------------------------------------
Magnitude (a.u.)       :      1.67375
Magnitude (Debye)      :      4.25433

                             ****ORCA TERMINATED NORMALLY****
TOTAL RUN TIME: 0 days 0 hours 12 minutes 38 seconds 608 msec
