                         Program Version 3.0.3 - RELEASE   -
|  1> ! RI-MP2 RIJK def2-TZVP def2-TZVP/C def2-TZVP/JK TIGHTSCF
|  2> % maxcore 2000
|  3> % mp2 density relaxed end
|  4> *xyz 0 1
|  5>  C        0.1035254087     1.3699393881     0.2310394243
|  6>  C       -0.0499229161    -0.0929059658     0.0007566066
|  7>  N        0.1873292380    -0.7254978938    -1.0745242498
|  8>  C       -0.1418769245    -2.1310313632    -0.8172370766
|  9>  C       -0.5068538262    -2.1844264672     0.6918574180
| 10>  C        0.5241623380    -2.9511491672     1.5356628283
| 11>  C        0.2241519874    -2.9332329764     2.9653941296
| 12>  N       -0.0237216181    -2.9279779833     4.0935915730
| 13>  O       -0.5058590857    -0.7983258714     1.0825626940
| 14>  H        0.7998690860     1.5535179651     1.0549631658
| 15>  H        0.4704388761     1.8474256863    -0.6765689901
| 16>  H       -0.8580845651     1.8082828778     0.5156730281
| 17>  H       -0.9755716029    -2.4431413720    -1.4552515452
| 18>  H        0.7106743261    -2.7752445928    -1.0620180877
| 19>  H       -1.5072545717    -2.5816799070     0.8804130824
| 20>  H        0.5600749568    -3.9926141997     1.1954151638
| 21>  H        1.5183621831    -2.5210313175     1.3700720655
| 22> *
| 23>
| 24>                          ****END OF INPUT****

CARTESIAN COORDINATES (ANGSTROEM)
---------------------------------
  C      0.103525    1.369939    0.231039
  C     -0.049923   -0.092906    0.000757
  N      0.187329   -0.725498   -1.074524
  C     -0.141877   -2.131031   -0.817237
  C     -0.506854   -2.184426    0.691857
  C      0.524162   -2.951149    1.535663
  C      0.224152   -2.933233    2.965394
  N     -0.023722   -2.927978    4.093592
  O     -0.505859   -0.798326    1.082563
  H      0.799869    1.553518    1.054963
  H      0.470439    1.847426   -0.676569
  H     -0.858085    1.808283    0.515673
  H     -0.975572   -2.443141   -1.455252
  H      0.710674   -2.775245   -1.062018
  H     -1.507255   -2.581680    0.880413
  H      0.560075   -3.992614    1.195415
  H      1.518362   -2.521031    1.370072

 Total Charge           Charge          ....    0
 Multiplicity           Mult            ....    1
 Number of Electrons    NEL             ....   66
 Basis Dimension        Dim             ....  327

ORBITAL ENERGIES
----------------

  NO   OCC          E(Eh)            E(eV)
   0   2.0000     -20.606903      -560.7423
   1   2.0000     -15.573241      -423.7694
   2   2.0000     -15.554964      -423.2721
   3   2.0000     -11.346825      -308.7628
   4   2.0000     -11.324440      -308.1537
   5   2.0000     -11.294485      -307.3386
   6   2.0000     -11.277429      -306.8745
   7   2.0000     -11.277213      -306.8686
   8   2.0000     -11.245051      -305.9934
   9   2.0000      -1.452261       -39.5180
  10   2.0000      -1.226246       -33.3678
  11   2.0000      -1.221565       -33.2405
  12   2.0000      -1.108228       -30.1564
  13   2.0000      -1.031719       -28.0745
  14   2.0000      -0.956066       -26.0159
  15   2.0000      -0.863825       -23.5059
  16   2.0000      -0.781258       -21.2591
  17   2.0000      -0.732261       -19.9258
  18   2.0000      -0.697911       -18.9911
  19   2.0000      -0.675744       -18.3879
  20   2.0000      -0.650755       -17.7080
  21   2.0000      -0.619254       -16.8508
  22   2.0000      -0.599372       -16.3097
  23   2.0000      -0.581532       -15.8243
  24   2.0000      -0.562543       -15.3076
  25   2.0000      -0.559517       -15.2252
  26   2.0000      -0.557243       -15.1634
  27   2.0000      -0.530439       -14.4340
  28   2.0000      -0.525154       -14.2902
  29   2.0000      -0.466219       -12.6865
  30   2.0000      -0.463368       -12.6089
  31   2.0000      -0.442850       -12.0506
  32   2.0000      -0.392429       -10.6785
  33   0.0000       0.116551         3.1715
  34   0.0000       0.142300         3.8722
  35   0.0000       0.149945         4.0802
  36   0.0000       0.162715         4.4277
  37   0.0000       0.166214         4.5229

MULLIKEN ATOMIC CHARGES
-----------------------
   0 C :   -0.400990
   1 C :    0.200636
   2 N :   -0.262627
   3 C :   -0.120915
   4 C :    0.074201
   5 C :   -0.174862
   6 C :   -0.178544
   7 N :   -0.052421
   8 O :   -0.270904
   9 H :    0.151957
  10 H :    0.161717
  11 H :    0.153747
  12 H :    0.126960
  13 H :    0.128864
  14 H :    0.129916
  15 H :    0.162452
  16 H :    0.170814
Sum of atomic charges:    0.0000000

LOEWDIN ATOMIC CHARGES
----------------------
   0 C :   -0.258623
   1 C :   -0.391829
   2 N :    0.084163
   3 C :   -0.255561
   4 C :   -0.259806
   5 C :   -0.229970
   6 C :   -0.190320
   7 N :    0.063885
   8 O :    0.256569
   9 H :    0.140289
  10 H :    0.141379
  11 H :    0.141237
  12 H :    0.134918
  13 H :    0.135448
  14 H :    0.148198
  15 H :    0.169350
  16 H :    0.170673

  Mayer bond orders larger than 0.1
B(  0-C ,  1-C ) :   0.8925 B(  0-C ,  9-H ) :   0.9226 B(  0-C , 10-H ) :   0.9465
B(  0-C , 11-H ) :   0.9226 B(  1-C ,  2-N ) :   1.8510 B(  1-C ,  8-O ) :   1.0553
B(  2-N ,  3-C ) :   0.9335 B(  3-C ,  4-C ) :   0.8966 B(  3-C , 12-H ) :   0.9230
B(  3-C , 13-H ) :   0.9266 B(  4-C ,  5-C ) :   0.9014 B(  4-C ,  8-O ) :   0.8595
B(  4-C , 14-H ) :   0.9252 B(  5-C ,  6-C ) :   0.9425 B(  5-C , 15-H ) :   0.9062
B(  5-C , 16-H ) :   0.9015 B(  6-C ,  7-N ) :   2.8680

MP2 TOTAL ENERGY:     -417.339860483 Eh
FINAL SINGLE POINT ENERGY      -417.339860482660

DIPOLE MOMENT
-------------
                                X             Y             Z
Electronic contribution:     -0.74491      -2.53443       4.21028
Nuclear contribution   :      0.86391       2.36422      -5.34223
                        -----------------------------------------
Total Dipole Moment    :      0.11899      -0.17021      -1.13194
                        -----------------------------------------
Magnitude (a.u.)       :      1.15084
Magnitude (Debye)      :      2.92520

                             ****ORCA TERMINATED NORMALLY****
TOTAL RUN TIME: 0 days 0 hours 16 minutes 41 seconds 668 msec
