                         Program Version 3.0.3 - RELEASE   -
|  1> ! RI-MP2 RIJK def2-TZVP def2-TZVP/C def2-TZVP/JK TIGHTSCF
|  2> % maxcore 2000
|  3> % mp2 density relaxed end
|  4> *xyz 0 1
|  5>  C        0.0619334405     1.4767421240     0.0179621698
|  6>  C       -0.0682867129    -0.0250303383     0.0000384130
|  7>  C       -0.6431826747    -0.7865975697     1.1435515216
|  8>  N        0.8108199944    -0.8380313379     0.8754463711
|  9>  C        1.1922626165    -1.9066161004    -0.0657302226
| 10>  C        0.0377781690    -2.3050697533    -1.0550509294
| 11>  C        1.0901699417    -2.5124517391    -2.1658998309
| 12>  C        1.5498254663    -1.2387972472    -1.4303174517
| 13>  C        0.0452597692    -0.7686129117    -1.3266744064
| 14>  H        0.9223472274     1.8029802913    -0.5769898916
| 15>  H       -0.8339146277     1.9527827819    -0.3969700321
| 16>  H        0.2007590199     1.8413421497     1.0391302072
| 17>  H       -0.9060830743    -0.2519240177     2.0526386662
| 18>  H       -1.2424155182    -1.6725651948     0.9575430702
| 19>  H        1.8368394659    -2.6741290068     0.3643959300
| 20>  H       -0.8309472376    -2.9323417830    -0.8528610512
| 21>  H        1.7330237300    -3.3929223797    -2.0760748335
| 22>  H        0.7430828176    -2.3869506886    -3.1949395126
| 23>  H        2.4180482197    -0.6112977971    -1.6367904134
| 24>  H       -0.4598576730    -0.3698623714    -2.2078604936
| 25> *
| 26>
| 27>                          ****END OF INPUT****

CARTESIAN COORDINATES (ANGSTROEM)
---------------------------------
  C      0.061933    1.476742    0.017962
  C     -0.068287   -0.025030    0.000038
  C     -0.643183   -0.786598    1.143552
  N      0.810820   -0.838031    0.875446
  C      1.192263   -1.906616   -0.065730
  C      0.037778   -2.305070   -1.055051
  C      1.090170   -2.512452   -2.165900
  C      1.549825   -1.238797   -1.430317
  C      0.045260   -0.768613   -1.326674
  H      0.922347    1.802980   -0.576990
  H     -0.833915    1.952783   -0.396970
  H      0.200759    1.841342    1.039130
  H     -0.906083   -0.251924    2.052639
  H     -1.242416   -1.672565    0.957543
  H      1.836839   -2.674129    0.364396
  H     -0.830947   -2.932342   -0.852861
  H      1.733024   -3.392922   -2.076075
  H      0.743083   -2.386951   -3.194940
  H      2.418048   -0.611298   -1.636790
  H     -0.459858   -0.369862   -2.207860

 Total Charge           Charge          ....    0
 Multiplicity           Mult            ....    1
 Number of Electrons    NEL             ....   66
 Basis Dimension        Dim             ....  345

ORBITAL ENERGIES
----------------

  NO   OCC          E(Eh)            E(eV)
   0   2.0000     -15.548739      -423.1027
   1   2.0000     -11.260814      -306.4223
   2   2.0000     -11.256759      -306.3120
   3   2.0000     -11.249178      -306.1057
   4   2.0000     -11.241498      -305.8967
   5   2.0000     -11.240648      -305.8736
   6   2.0000     -11.240103      -305.8588
   7   2.0000     -11.227724      -305.5219
   8   2.0000     -11.216154      -305.2071
   9   2.0000      -1.299549       -35.3625
  10   2.0000      -1.178615       -32.0717
  11   2.0000      -1.006269       -27.3820
  12   2.0000      -0.932553       -25.3761
  13   2.0000      -0.918746       -25.0004
  14   2.0000      -0.863012       -23.4838
  15   2.0000      -0.821911       -22.3653
  16   2.0000      -0.743091       -20.2205
  17   2.0000      -0.733238       -19.9524
  18   2.0000      -0.678958       -18.4754
  19   2.0000      -0.663442       -18.0532
  20   2.0000      -0.608282       -16.5522
  21   2.0000      -0.581950       -15.8357
  22   2.0000      -0.561886       -15.2897
  23   2.0000      -0.560790       -15.2599
  24   2.0000      -0.536204       -14.5909
  25   2.0000      -0.496802       -13.5187
  26   2.0000      -0.471327       -12.8254
  27   2.0000      -0.468849       -12.7580
  28   2.0000      -0.450463       -12.2577
  29   2.0000      -0.444180       -12.0867
  30   2.0000      -0.429252       -11.6805
  31   2.0000      -0.401789       -10.9332
  32   2.0000      -0.358060        -9.7433
  33   0.0000       0.146021         3.9734
  34   0.0000       0.156290         4.2529
  35   0.0000       0.161692         4.3999
  36   0.0000       0.176613         4.8059
  37   0.0000       0.186205         5.0669

MULLIKEN ATOMIC CHARGES
-----------------------
   0 C :   -0.454671
   1 C :    0.088072
   2 C :   -0.175914
   3 N :   -0.252385
   4 C :    0.011107
   5 C :   -0.172926
   6 C :   -0.213623
   7 C :   -0.162547
   8 C :   -0.038898
   9 H :    0.131431
  10 H :    0.130719
  11 H :    0.141375
  12 H :    0.120785
  13 H :    0.122680
  14 H :    0.115679
  15 H :    0.128321
  16 H :    0.115092
  17 H :    0.114238
  18 H :    0.130173
  19 H :    0.121293
Sum of atomic charges:   -0.0000000

LOEWDIN ATOMIC CHARGES
----------------------
   0 C :   -0.266832
   1 C :   -0.278553
   2 C :   -0.212339
   3 N :    0.143239
   4 C :   -0.194641
   5 C :   -0.158996
   6 C :   -0.201779
   7 C :   -0.135379
   8 C :   -0.129142
   9 H :    0.128850
  10 H :    0.127547
  11 H :    0.132262
  12 H :    0.128268
  13 H :    0.128252
  14 H :    0.137625
  15 H :    0.123999
  16 H :    0.128792
  17 H :    0.129031
  18 H :    0.126704
  19 H :    0.143092

  Mayer bond orders larger than 0.1
B(  0-C ,  1-C ) :   0.8722 B(  0-C ,  9-H ) :   0.9360 B(  0-C , 10-H ) :   0.9452
B(  0-C , 11-H ) :   0.9397 B(  1-C ,  2-C ) :   0.9644 B(  1-C ,  3-N ) :   0.8501
B(  1-C ,  8-C ) :   0.9108 B(  2-C ,  3-N ) :   0.9072 B(  2-C , 12-H ) :   0.9168
B(  2-C , 13-H ) :   0.9007 B(  3-N ,  4-C ) :   0.9220 B(  4-C ,  5-C ) :   0.8631
B(  4-C ,  7-C ) :   0.8582 B(  4-C , 14-H ) :   0.9424 B(  5-C ,  6-C ) :   0.9102
B(  5-C ,  8-C ) :   0.8679 B(  5-C , 15-H ) :   0.9100 B(  6-C ,  7-C ) :   0.9107
B(  6-C , 16-H ) :   0.9292 B(  6-C , 17-H ) :   0.9245 B(  7-C ,  8-C ) :   0.8744
B(  7-C , 18-H ) :   0.8908 B(  8-C , 19-H ) :   0.9233

MP2 TOTAL ENERGY:     -365.286990119 Eh
FINAL SINGLE POINT ENERGY      -365.286990119425

DIPOLE MOMENT
-------------
                                X             Y             Z
Electronic contribution:      0.87018      -1.94306       1.17877
Nuclear contribution   :     -1.25346       1.84020      -1.60804
                        -----------------------------------------
Total Dipole Moment    :     -0.38328      -0.10286      -0.42926
                        -----------------------------------------
Magnitude (a.u.)       :      0.58460
Magnitude (Debye)      :      1.48592

                             ****ORCA TERMINATED NORMALLY****
TOTAL RUN TIME: 0 days 0 hours 19 minutes 23 seconds 233 msec
