                         Program Version 3.0.3 - RELEASE   -
|  1> ! RI-MP2 RIJK def2-TZVP def2-TZVP/C def2-TZVP/JK TIGHTSCF
|  2> % maxcore 2000
|  3> % mp2 density relaxed end
|  4> *xyz 0 1
|  5>  C        0.0851571947     1.5465339541    -0.0354345708
|  6>  N        1.2797757603     0.6808369760    -0.0295168772
|  7>  C       -0.0353073507     0.0740616754     0.0122812759
|  8>  C       -0.5362847988    -0.8870666244     1.1535274707
|  9>  N       -1.0942094639    -1.6809863704     0.0351665471
| 10>  N       -1.8534115781    -2.6975637598    -0.4229690780
| 11>  C       -1.8224268328    -2.4192594459    -1.7335895621
| 12>  N       -1.1248872043    -1.2989747243    -2.1243378879
| 13>  C       -0.6948769264    -0.8791480275    -0.9482317852
| 14>  H       -0.0564671433     2.1324762479     0.8681988926
| 15>  H       -0.2076218052     2.0413538220    -0.9573641951
| 16>  H        1.6836302313     0.6006261467    -0.9593892473
| 17>  H        0.2529513686    -1.3947680436     1.7105327306
| 18>  H       -1.2952711670    -0.4790264937     1.8242227230
| 19>  H       -2.3269258444    -3.0580909126    -2.4435720764
| 20> *
| 21>
| 22>                          ****END OF INPUT****

CARTESIAN COORDINATES (ANGSTROEM)
---------------------------------
  C      0.085157    1.546534   -0.035435
  N      1.279776    0.680837   -0.029517
  C     -0.035307    0.074062    0.012281
  C     -0.536285   -0.887067    1.153527
  N     -1.094209   -1.680986    0.035167
  N     -1.853412   -2.697564   -0.422969
  C     -1.822427   -2.419259   -1.733590
  N     -1.124887   -1.298975   -2.124338
  C     -0.694877   -0.879148   -0.948232
  H     -0.056467    2.132476    0.868199
  H     -0.207622    2.041354   -0.957364
  H      1.683630    0.600626   -0.959389
  H      0.252951   -1.394768    1.710533
  H     -1.295271   -0.479026    1.824223
  H     -2.326926   -3.058091   -2.443572

 Total Charge           Charge          ....    0
 Multiplicity           Mult            ....    1
 Number of Electrons    NEL             ....   64
 Basis Dimension        Dim             ....  315

ORBITAL ENERGIES
----------------

  NO   OCC          E(Eh)            E(eV)
   0   2.0000     -15.642460      -425.6530
   1   2.0000     -15.598928      -424.4684
   2   2.0000     -15.589690      -424.2170
   3   2.0000     -15.562603      -423.4799
   4   2.0000     -11.319403      -308.0166
   5   2.0000     -11.312896      -307.8395
   6   2.0000     -11.312540      -307.8299
   7   2.0000     -11.293168      -307.3027
   8   2.0000     -11.286726      -307.1274
   9   2.0000      -1.426961       -38.8296
  10   2.0000      -1.299954       -35.3735
  11   2.0000      -1.211038       -32.9540
  12   2.0000      -1.170501       -31.8510
  13   2.0000      -0.961913       -26.1750
  14   2.0000      -0.920603       -25.0509
  15   2.0000      -0.892020       -24.2731
  16   2.0000      -0.822049       -22.3691
  17   2.0000      -0.759715       -20.6729
  18   2.0000      -0.731292       -19.8995
  19   2.0000      -0.690354       -18.7855
  20   2.0000      -0.661183       -17.9917
  21   2.0000      -0.647626       -17.6228
  22   2.0000      -0.600754       -16.3474
  23   2.0000      -0.586668       -15.9640
  24   2.0000      -0.533040       -14.5048
  25   2.0000      -0.524443       -14.2708
  26   2.0000      -0.507477       -13.8091
  27   2.0000      -0.473493       -12.8844
  28   2.0000      -0.457301       -12.4438
  29   2.0000      -0.435011       -11.8373
  30   2.0000      -0.406153       -11.0520
  31   2.0000      -0.356988        -9.7141
  32   0.0000       0.130450         3.5497
  33   0.0000       0.139512         3.7963
  34   0.0000       0.154799         4.2123
  35   0.0000       0.171011         4.6535
  36   0.0000       0.175324         4.7708

MULLIKEN ATOMIC CHARGES
-----------------------
   0 C :   -0.191682
   1 N :   -0.377031
   2 C :    0.069007
   3 C :   -0.114259
   4 N :    0.092074
   5 N :   -0.270648
   6 C :    0.052783
   7 N :   -0.281259
   8 C :    0.050462
   9 H :    0.134922
  10 H :    0.151395
  11 H :    0.242221
  12 H :    0.150485
  13 H :    0.147047
  14 H :    0.144484
Sum of atomic charges:    0.0000000

LOEWDIN ATOMIC CHARGES
----------------------
   0 C :   -0.224247
   1 N :    0.021076
   2 C :   -0.252375
   3 C :   -0.128852
   4 N :    0.226679
   5 N :    0.028465
   6 C :   -0.321809
   7 N :    0.087882
   8 C :   -0.283550
   9 H :    0.130884
  10 H :    0.132154
  11 H :    0.177469
  12 H :    0.138594
  13 H :    0.136732
  14 H :    0.130899

  Mayer bond orders larger than 0.1
B(  0-C ,  1-N ) :   0.9475 B(  0-C ,  2-C ) :   0.9093 B(  0-C ,  9-H ) :   0.9153
B(  0-C , 10-H ) :   0.9196 B(  1-N ,  2-C ) :   0.9085 B(  1-N , 11-H ) :   0.8648
B(  2-C ,  3-C ) :   0.8913 B(  2-C ,  8-C ) :   0.9416 B(  3-C ,  4-N ) :   0.8332
B(  3-C , 12-H ) :   0.9150 B(  3-C , 13-H ) :   0.9189 B(  4-N ,  5-N ) :   1.0408
B(  4-N ,  8-C ) :   1.2203 B(  5-N ,  6-C ) :   1.4673 B(  6-C ,  7-N ) :   1.2789
B(  6-C , 14-H ) :   0.9333 B(  7-N ,  8-C ) :   1.5872

MP2 TOTAL ENERGY:     -412.228653455 Eh
FINAL SINGLE POINT ENERGY      -412.228653455382

DIPOLE MOMENT
-------------
                                X             Y             Z
Electronic contribution:     -1.52324      -3.66171      -1.92002
Nuclear contribution   :      1.72575       4.49600       2.53352
                        -----------------------------------------
Total Dipole Moment    :      0.20250       0.83429       0.61350
                        -----------------------------------------
Magnitude (a.u.)       :      1.05519
Magnitude (Debye)      :      2.68209

                             ****ORCA TERMINATED NORMALLY****
TOTAL RUN TIME: 0 days 0 hours 14 minutes 44 seconds 415 msec
