                         Program Version 3.0.3 - RELEASE   -
|  1> ! RI-MP2 RIJK def2-TZVP def2-TZVP/C def2-TZVP/JK TIGHTSCF
|  2> % maxcore 2000
|  3> % mp2 density relaxed end
|  4> *xyz 0 1
|  5>  C       -0.0253745221     1.4812498477     0.0374235840
|  6>  C        0.0022337234    -0.0018060437     0.0150218980
|  7>  N        0.0006242920    -0.7553058300    -1.0586659551
|  8>  N        0.0318820573    -2.0591084188    -0.6165869774
|  9>  C        0.0525064644    -2.1072042820     0.7346582594
| 10>  N        0.0828228211    -2.9344768421     1.7651191879
| 11>  C        0.0809444557    -2.0350173908     2.7984063540
| 12>  N        0.0523490010    -0.7368824006     2.4968498882
| 13>  N        0.0340033854    -0.8055499668     1.1324358506
| 14>  H        0.8567990579     1.8783685869     0.5496551826
| 15>  H       -0.0468317511     1.8566770045    -0.9861180351
| 16>  H       -0.9071403360     1.8451949363     0.5744188433
| 17>  H        0.0352829651    -2.8119721040    -1.2803590268
| 18>  H        0.1017743759    -2.3550775865     3.8304350467
| 19> *
| 20>
| 21>                          ****END OF INPUT****

CARTESIAN COORDINATES (ANGSTROEM)
---------------------------------
  C     -0.025375    1.481250    0.037424
  C      0.002234   -0.001806    0.015022
  N      0.000624   -0.755306   -1.058666
  N      0.031882   -2.059108   -0.616587
  C      0.052506   -2.107204    0.734658
  N      0.082823   -2.934477    1.765119
  C      0.080944   -2.035017    2.798406
  N      0.052349   -0.736882    2.496850
  N      0.034003   -0.805550    1.132436
  H      0.856799    1.878369    0.549655
  H     -0.046832    1.856677   -0.986118
  H     -0.907140    1.845195    0.574419
  H      0.035283   -2.811972   -1.280359
  H      0.101774   -2.355078    3.830435

 Total Charge           Charge          ....    0
 Multiplicity           Mult            ....    1
 Number of Electrons    NEL             ....   64
 Basis Dimension        Dim             ....  309

ORBITAL ENERGIES
----------------

  NO   OCC          E(Eh)            E(eV)
   0   2.0000     -15.661077      -426.1596
   1   2.0000     -15.652462      -425.9252
   2   2.0000     -15.617120      -424.9635
   3   2.0000     -15.595717      -424.3810
   4   2.0000     -15.558882      -423.3787
   5   2.0000     -11.359834      -309.1168
   6   2.0000     -11.341111      -308.6073
   7   2.0000     -11.306862      -307.6754
   8   2.0000     -11.255944      -306.2898
   9   2.0000      -1.464162       -39.8419
  10   2.0000      -1.356494       -36.9121
  11   2.0000      -1.231325       -33.5061
  12   2.0000      -1.136077       -30.9142
  13   2.0000      -1.120533       -30.4912
  14   2.0000      -1.010541       -27.4982
  15   2.0000      -0.874354       -23.7924
  16   2.0000      -0.872407       -23.7394
  17   2.0000      -0.812416       -22.1070
  18   2.0000      -0.733321       -19.9547
  19   2.0000      -0.703106       -19.1325
  20   2.0000      -0.685404       -18.6508
  21   2.0000      -0.630138       -17.1469
  22   2.0000      -0.612415       -16.6647
  23   2.0000      -0.599104       -16.3024
  24   2.0000      -0.578206       -15.7338
  25   2.0000      -0.562587       -15.3088
  26   2.0000      -0.500056       -13.6072
  27   2.0000      -0.496555       -13.5120
  28   2.0000      -0.475167       -12.9300
  29   2.0000      -0.459725       -12.5098
  30   2.0000      -0.371035       -10.0964
  31   2.0000      -0.348365        -9.4795
  32   0.0000       0.132219         3.5979
  33   0.0000       0.134689         3.6651
  34   0.0000       0.138188         3.7603
  35   0.0000       0.184087         5.0092
  36   0.0000       0.185645         5.0517

MULLIKEN ATOMIC CHARGES
-----------------------
   0 C :   -0.406548
   1 C :    0.152947
   2 N :   -0.183835
   3 N :   -0.186941
   4 C :    0.224039
   5 N :   -0.313345
   6 C :    0.048083
   7 N :   -0.314049
   8 N :    0.081097
   9 H :    0.158236
  10 H :    0.163432
  11 H :    0.158224
  12 H :    0.275101
  13 H :    0.143559
Sum of atomic charges:    0.0000000

LOEWDIN ATOMIC CHARGES
----------------------
   0 C :   -0.260966
   1 C :   -0.321512
   2 N :    0.067165
   3 N :    0.129998
   4 C :   -0.379865
   5 N :    0.070561
   6 C :   -0.327326
   7 N :    0.021717
   8 N :    0.244777
   9 H :    0.142103
  10 H :    0.144438
  11 H :    0.142101
  12 H :    0.194662
  13 H :    0.132145

  Mayer bond orders larger than 0.1
B(  0-C ,  1-C ) :   0.8886 B(  0-C ,  9-H ) :   0.9241 B(  0-C , 10-H ) :   0.9422
B(  0-C , 11-H ) :   0.9240 B(  1-C ,  2-N ) :   1.6589 B(  1-C ,  8-N ) :   1.1103
B(  2-N ,  3-N ) :   0.9867 B(  3-N ,  4-C ) :   1.1604 B(  3-N , 12-H ) :   0.8639
B(  4-C ,  5-N ) :   1.5539 B(  4-C ,  8-N ) :   1.1221 B(  5-N ,  6-C ) :   1.2892
B(  6-C ,  7-N ) :   1.4873 B(  6-C , 13-H ) :   0.9340 B(  7-N ,  8-N ) :   0.9623

MP2 TOTAL ENERGY:     -428.345759954 Eh
FINAL SINGLE POINT ENERGY      -428.345759954438

DIPOLE MOMENT
-------------
                                X             Y             Z
Electronic contribution:      0.10392      -5.12202       0.45640
Nuclear contribution   :     -0.12205       5.47125      -1.20842
                        -----------------------------------------
Total Dipole Moment    :     -0.01813       0.34923      -0.75202
                        -----------------------------------------
Magnitude (a.u.)       :      0.82935
Magnitude (Debye)      :      2.10804

                             ****ORCA TERMINATED NORMALLY****
TOTAL RUN TIME: 0 days 0 hours 15 minutes 48 seconds 802 msec
