                         Program Version 3.0.3 - RELEASE   -
|  1> ! RI-MP2 RIJK def2-TZVP def2-TZVP/C def2-TZVP/JK TIGHTSCF
|  2> % maxcore 2000
|  3> % mp2 density relaxed end
|  4> *xyz 0 1
|  5>  O       -0.0423583265     0.0161777904     0.0041130978
|  6>  C       -0.0395504502     1.2150008481     0.0108773495
|  7>  C       -1.2495038544     2.1469613197     0.0320567926
|  8>  C       -0.6222196646     3.5309259809     0.0314775921
|  9>  C        0.7323892311     3.4971417163     0.0133028733
| 10>  C        1.2302423700     2.1165009813    -0.0008835280
| 11>  O        2.3680083166     1.7134114980    -0.0182935977
| 12>  C       -1.4223747570     4.6917307122     0.0483485172
| 13>  C       -2.1430876709     5.6578096428     0.0633778458
| 14>  H       -1.8920117104     1.9826037963    -0.8399970464
| 15>  H       -1.8686988234     1.9728341520     0.9189571067
| 16>  H        1.3796966372     4.3637587058     0.0094449347
| 17>  H       -2.7668335478     6.5181796264     0.0766873423
| 18> *
| 19>
| 20>                          ****END OF INPUT****

CARTESIAN COORDINATES (ANGSTROEM)
---------------------------------
  O     -0.042358    0.016178    0.004113
  C     -0.039550    1.215001    0.010877
  C     -1.249504    2.146961    0.032057
  C     -0.622220    3.530926    0.031478
  C      0.732389    3.497142    0.013303
  C      1.230242    2.116501   -0.000884
  O      2.368008    1.713411   -0.018294
  C     -1.422375    4.691731    0.048349
  C     -2.143088    5.657810    0.063378
  H     -1.892012    1.982604   -0.839997
  H     -1.868699    1.972834    0.918957
  H      1.379697    4.363759    0.009445
  H     -2.766834    6.518180    0.076687

 Total Charge           Charge          ....    0
 Multiplicity           Mult            ....    1
 Number of Electrons    NEL             ....   62
 Basis Dimension        Dim             ....  303

ORBITAL ENERGIES
----------------

  NO   OCC          E(Eh)            E(eV)
   0   2.0000     -20.583785      -560.1133
   1   2.0000     -20.572048      -559.7939
   2   2.0000     -11.357511      -309.0536
   3   2.0000     -11.352779      -308.9248
   4   2.0000     -11.323339      -308.1237
   5   2.0000     -11.280401      -306.9553
   6   2.0000     -11.277294      -306.8708
   7   2.0000     -11.275852      -306.8315
   8   2.0000     -11.273210      -306.7597
   9   2.0000      -1.428841       -38.8807
  10   2.0000      -1.400993       -38.1230
  11   2.0000      -1.190032       -32.3824
  12   2.0000      -1.073278       -29.2054
  13   2.0000      -1.006578       -27.3904
  14   2.0000      -0.954386       -25.9702
  15   2.0000      -0.833069       -22.6690
  16   2.0000      -0.762015       -20.7355
  17   2.0000      -0.745594       -20.2886
  18   2.0000      -0.719641       -19.5824
  19   2.0000      -0.665593       -18.1117
  20   2.0000      -0.656864       -17.8742
  21   2.0000      -0.644149       -17.5282
  22   2.0000      -0.639788       -17.4095
  23   2.0000      -0.584571       -15.9070
  24   2.0000      -0.565981       -15.4011
  25   2.0000      -0.529738       -14.4149
  26   2.0000      -0.512471       -13.9451
  27   2.0000      -0.480892       -13.0857
  28   2.0000      -0.432468       -11.7681
  29   2.0000      -0.406017       -11.0483
  30   2.0000      -0.377478       -10.2717
  31   0.0000       0.020498         0.5578
  32   0.0000       0.098557         2.6819
  33   0.0000       0.129075         3.5123
  34   0.0000       0.140560         3.8248
  35   0.0000       0.146590         3.9889

MULLIKEN ATOMIC CHARGES
-----------------------
   0 O :   -0.220328
   1 C :    0.095577
   2 C :   -0.145292
   3 C :   -0.160607
   4 C :   -0.198062
   5 C :    0.202008
   6 O :   -0.248894
   7 C :    0.066561
   8 C :   -0.080039
   9 H :    0.157450
  10 H :    0.157447
  11 H :    0.165792
  12 H :    0.208387
Sum of atomic charges:    0.0000000

LOEWDIN ATOMIC CHARGES
----------------------
   0 O :    0.200937
   1 C :   -0.266240
   2 C :   -0.160993
   3 C :   -0.115088
   4 C :   -0.057374
   5 C :   -0.302787
   6 O :    0.183956
   7 C :   -0.062054
   8 C :   -0.035848
   9 H :    0.163118
  10 H :    0.163119
  11 H :    0.155205
  12 H :    0.134048

  Mayer bond orders larger than 0.1
B(  0-O ,  1-C ) :   2.0389 B(  1-C ,  2-C ) :   0.8789 B(  1-C ,  5-C ) :   0.8988
B(  2-C ,  3-C ) :   0.9070 B(  2-C ,  5-C ) :  -0.1075 B(  2-C ,  9-H ) :   0.8821
B(  2-C , 10-H ) :   0.8821 B(  3-C ,  4-C ) :   1.5174 B(  3-C ,  7-C ) :   1.1293
B(  3-C ,  8-C ) :  -0.1502 B(  4-C ,  5-C ) :   0.9580 B(  4-C , 11-H ) :   0.9159
B(  5-C ,  6-O ) :   1.9497 B(  7-C ,  8-C ) :   2.5613 B(  8-C , 12-H ) :   0.8748

MP2 TOTAL ENERGY:     -418.704270410 Eh
FINAL SINGLE POINT ENERGY      -418.704270410338

DIPOLE MOMENT
-------------
                                X             Y             Z
Electronic contribution:      3.11343      -2.36769      -0.05440
Nuclear contribution   :     -4.47434       3.95823       0.08148
                        -----------------------------------------
Total Dipole Moment    :     -1.36091       1.59054       0.02707
                        -----------------------------------------
Magnitude (a.u.)       :      2.09347
Magnitude (Debye)      :      5.32118

                             ****ORCA TERMINATED NORMALLY****
TOTAL RUN TIME: 0 days 0 hours 12 minutes 26 seconds 711 msec
