                         Program Version 3.0.3 - RELEASE   -
|  1> ! RI-MP2 RIJK def2-TZVP def2-TZVP/C def2-TZVP/JK TIGHTSCF
|  2> % maxcore 2000
|  3> % mp2 density relaxed end
|  4> *xyz 0 1
|  5>  C       -0.0210863978     1.4685368353    -0.0140399361
|  6>  C        1.3284357899     0.7736125143    -0.0176130001
|  7>  C        2.2271142831     0.4636620238    -1.2005049991
|  8>  C        2.3730134975    -1.0852904820    -1.3089593281
|  9>  C        1.0370089934    -1.8402141041    -1.0120322885
| 10>  C        0.8177169287    -2.2050906097     0.4995031374
| 11>  C       -0.0603282545    -1.0540833632     1.1077161333
| 12>  C        0.0425109924    -0.0274942927    -0.0024060167
| 13>  C       -0.1278133415    -0.8643302478    -1.2652026761
| 14>  H       -0.2933212029     2.0025477979     0.8912430611
| 15>  H       -0.3762263939     1.9440561490    -0.9243859255
| 16>  H        1.8458328051     0.8105980041     0.9389281749
| 17>  H        1.8026978905     0.8641982304    -2.1269223705
| 18>  H        3.2121382863     0.9293014091    -1.0953776024
| 19>  H        2.7290283181    -1.3451639395    -2.3129040434
| 20>  H        3.1478981841    -1.4282983880    -0.6127466710
| 21>  H        0.9929766716    -2.7425194149    -1.6280892184
| 22>  H        0.3133363195    -3.1718451341     0.5903265840
| 23>  H        1.7732210584    -2.2961819127     1.0250021395
| 24>  H       -1.0910526200    -1.3922531517     1.2693649145
| 25>  H        0.3223084290    -0.6917129619     2.0657435672
| 26>  H       -0.0459116068    -0.3067674871    -2.2003931951
| 27>  H       -1.0971990101    -1.3765465544    -1.2678371010
| 28> *
| 29>
| 30>                          ****END OF INPUT****

CARTESIAN COORDINATES (ANGSTROEM)
---------------------------------
  C     -0.021086    1.468537   -0.014040
  C      1.328436    0.773613   -0.017613
  C      2.227114    0.463662   -1.200505
  C      2.373013   -1.085290   -1.308959
  C      1.037009   -1.840214   -1.012032
  C      0.817717   -2.205091    0.499503
  C     -0.060328   -1.054083    1.107716
  C      0.042511   -0.027494   -0.002406
  C     -0.127813   -0.864330   -1.265203
  H     -0.293321    2.002548    0.891243
  H     -0.376226    1.944056   -0.924386
  H      1.845833    0.810598    0.938928
  H      1.802698    0.864198   -2.126922
  H      3.212138    0.929301   -1.095378
  H      2.729028   -1.345164   -2.312904
  H      3.147898   -1.428298   -0.612747
  H      0.992977   -2.742519   -1.628089
  H      0.313336   -3.171845    0.590327
  H      1.773221   -2.296182    1.025002
  H     -1.091053   -1.392253    1.269365
  H      0.322308   -0.691713    2.065744
  H     -0.045912   -0.306767   -2.200393
  H     -1.097199   -1.376547   -1.267837

 Total Charge           Charge          ....    0
 Multiplicity           Mult            ....    1
 Number of Electrons    NEL             ....   68
 Basis Dimension        Dim             ....  363

ORBITAL ENERGIES
----------------

  NO   OCC          E(Eh)            E(eV)
   0   2.0000     -11.223951      -305.4192
   1   2.0000     -11.220645      -305.3293
   2   2.0000     -11.220530      -305.3261
   3   2.0000     -11.216756      -305.2234
   4   2.0000     -11.215601      -305.1920
   5   2.0000     -11.214188      -305.1536
   6   2.0000     -11.213905      -305.1459
   7   2.0000     -11.213777      -305.1424
   8   2.0000     -11.211405      -305.0778
   9   2.0000      -1.177312       -32.0363
  10   2.0000      -1.068217       -29.0677
  11   2.0000      -1.026015       -27.9193
  12   2.0000      -0.949719       -25.8432
  13   2.0000      -0.898604       -24.4523
  14   2.0000      -0.852273       -23.1915
  15   2.0000      -0.792939       -21.5770
  16   2.0000      -0.742251       -20.1977
  17   2.0000      -0.704181       -19.1617
  18   2.0000      -0.661939       -18.0123
  19   2.0000      -0.643149       -17.5010
  20   2.0000      -0.613062       -16.6823
  21   2.0000      -0.592139       -16.1129
  22   2.0000      -0.558509       -15.1978
  23   2.0000      -0.544822       -14.8253
  24   2.0000      -0.531915       -14.4741
  25   2.0000      -0.519783       -14.1440
  26   2.0000      -0.494811       -13.4645
  27   2.0000      -0.482463       -13.1285
  28   2.0000      -0.473531       -12.8854
  29   2.0000      -0.441672       -12.0185
  30   2.0000      -0.438587       -11.9346
  31   2.0000      -0.430632       -11.7181
  32   2.0000      -0.396234       -10.7821
  33   2.0000      -0.363317        -9.8864
  34   0.0000       0.136476         3.7137
  35   0.0000       0.159094         4.3292
  36   0.0000       0.160968         4.3802
  37   0.0000       0.163742         4.4556
  38   0.0000       0.185618         5.0509

MULLIKEN ATOMIC CHARGES
-----------------------
   0 C :   -0.274772
   1 C :   -0.111978
   2 C :   -0.263943
   3 C :   -0.292656
   4 C :    0.033082
   5 C :   -0.276043
   6 C :   -0.262688
   7 C :    0.111767
   8 C :   -0.271154
   9 H :    0.126049
  10 H :    0.122431
  11 H :    0.105486
  12 H :    0.119861
  13 H :    0.127010
  14 H :    0.115700
  15 H :    0.110060
  16 H :    0.105705
  17 H :    0.120190
  18 H :    0.108951
  19 H :    0.105279
  20 H :    0.110686
  21 H :    0.116825
  22 H :    0.114150
Sum of atomic charges:    0.0000000

LOEWDIN ATOMIC CHARGES
----------------------
   0 C :   -0.186802
   1 C :   -0.180196
   2 C :   -0.246006
   3 C :   -0.228681
   4 C :   -0.225183
   5 C :   -0.214526
   6 C :   -0.213905
   7 C :   -0.231870
   8 C :   -0.188806
   9 H :    0.135655
  10 H :    0.136528
  11 H :    0.149034
  12 H :    0.137586
  13 H :    0.136804
  14 H :    0.133525
  15 H :    0.134037
  16 H :    0.141584
  17 H :    0.131326
  18 H :    0.131436
  19 H :    0.133042
  20 H :    0.134511
  21 H :    0.138952
  22 H :    0.141954

  Mayer bond orders larger than 0.1
B(  0-C ,  1-C ) :   0.9258 B(  0-C ,  7-C ) :   0.9135 B(  0-C ,  9-H ) :   0.9164
B(  0-C , 10-H ) :   0.9019 B(  1-C ,  2-C ) :   0.9139 B(  1-C ,  7-C ) :   0.8095
B(  1-C , 11-H ) :   0.9275 B(  2-C ,  3-C ) :   0.9398 B(  2-C , 12-H ) :   0.9261
B(  2-C , 13-H ) :   0.9320 B(  3-C ,  4-C ) :   0.8753 B(  3-C , 14-H ) :   0.9298
B(  3-C , 15-H ) :   0.9365 B(  4-C ,  5-C ) :   0.9084 B(  4-C ,  8-C ) :   0.9445
B(  4-C , 16-H ) :   0.9288 B(  5-C ,  6-C ) :   0.9618 B(  5-C , 17-H ) :   0.9297
B(  5-C , 18-H ) :   0.9254 B(  6-C ,  7-C ) :   0.9317 B(  6-C , 19-H ) :   0.9183
B(  6-C , 20-H ) :   0.9169 B(  7-C ,  8-C ) :   0.9216 B(  8-C , 21-H ) :   0.9220
B(  8-C , 22-H ) :   0.9183

MP2 TOTAL ENERGY:     -350.518092040 Eh
FINAL SINGLE POINT ENERGY      -350.518092040173

DIPOLE MOMENT
-------------
                                X             Y             Z
Electronic contribution:     -1.10214       1.09954       0.28939
Nuclear contribution   :      1.15159      -1.16322      -0.32298
                        -----------------------------------------
Total Dipole Moment    :      0.04945      -0.06368      -0.03359
                        -----------------------------------------
Magnitude (a.u.)       :      0.08734
Magnitude (Debye)      :      0.22200

                             ****ORCA TERMINATED NORMALLY****
TOTAL RUN TIME: 0 days 0 hours 23 minutes 49 seconds 212 msec
