                         Program Version 3.0.3 - RELEASE   -
|  1> ! RI-MP2 RIJK def2-TZVP def2-TZVP/C def2-TZVP/JK TIGHTSCF
|  2> % maxcore 2000
|  3> % mp2 density relaxed end
|  4> *xyz 0 1
|  5>  C        0.1562466059     1.3074362063    -0.0893128659
|  6>  C        0.3674445971    -0.1233298574    -0.5894398686
|  7>  N       -0.7649430320    -1.0377530916    -0.5874545921
|  8>  C       -1.8959222958    -0.6516104771    -0.1789924414
|  9>  N       -2.9699225343    -1.5423455827    -0.1837308468
| 10>  C       -4.2335429221    -1.2254116121     0.2339093170
| 11>  O       -4.5502052911    -0.1268589645     0.6562006792
| 12>  C       -5.2696581373    -2.3460984602     0.1469328830
| 13>  O       -6.5072179567    -1.8906224609     0.6001907132
| 14>  H        1.0975929383     1.8606364057    -0.1560203170
| 15>  H       -0.5868719765     1.8439426232    -0.6887213394
| 16>  H       -0.1686639699     1.3307652966     0.9562689158
| 17>  H        0.7506108717    -0.0997365894    -1.6183826203
| 18>  H        1.1608804845    -0.6042539532    -0.0018291065
| 19>  H       -2.1725217158     0.3325570164     0.1991184708
| 20>  H       -2.7682787076    -2.4717779203    -0.5264229110
| 21>  H       -5.3288383887    -2.6916593861    -0.8982779069
| 22>  H       -4.9142666272    -3.2013880698     0.7450756840
| 23>  H       -6.3544697226    -0.9644144529     0.8513960029
| 24> *
| 25>
| 26>                          ****END OF INPUT****

CARTESIAN COORDINATES (ANGSTROEM)
---------------------------------
  C      0.156247    1.307436   -0.089313
  C      0.367445   -0.123330   -0.589440
  N     -0.764943   -1.037753   -0.587455
  C     -1.895922   -0.651610   -0.178992
  N     -2.969923   -1.542346   -0.183731
  C     -4.233543   -1.225412    0.233909
  O     -4.550205   -0.126859    0.656201
  C     -5.269658   -2.346098    0.146933
  O     -6.507218   -1.890622    0.600191
  H      1.097593    1.860636   -0.156020
  H     -0.586872    1.843943   -0.688721
  H     -0.168664    1.330765    0.956269
  H      0.750611   -0.099737   -1.618383
  H      1.160880   -0.604254   -0.001829
  H     -2.172522    0.332557    0.199118
  H     -2.768279   -2.471778   -0.526423
  H     -5.328838   -2.691659   -0.898278
  H     -4.914267   -3.201388    0.745076
  H     -6.354470   -0.964414    0.851396

 Total Charge           Charge          ....    0
 Multiplicity           Mult            ....    1
 Number of Electrons    NEL             ....   70
 Basis Dimension        Dim             ....  339

ORBITAL ENERGIES
----------------

  NO   OCC          E(Eh)            E(eV)
   0   2.0000     -20.561268      -559.5005
   1   2.0000     -20.553387      -559.2861
   2   2.0000     -15.618538      -425.0020
   3   2.0000     -15.558340      -423.3639
   4   2.0000     -11.379821      -309.6607
   5   2.0000     -11.324012      -308.1420
   6   2.0000     -11.306185      -307.6569
   7   2.0000     -11.260171      -306.4048
   8   2.0000     -11.224899      -305.4450
   9   2.0000      -1.425828       -38.7988
  10   2.0000      -1.368054       -37.2266
  11   2.0000      -1.296096       -35.2686
  12   2.0000      -1.209267       -32.9058
  13   2.0000      -1.028820       -27.9956
  14   2.0000      -0.987399       -26.8685
  15   2.0000      -0.899843       -24.4860
  16   2.0000      -0.825188       -22.4545
  17   2.0000      -0.818067       -22.2607
  18   2.0000      -0.742342       -20.2001
  19   2.0000      -0.697021       -18.9669
  20   2.0000      -0.672385       -18.2965
  21   2.0000      -0.652744       -17.7621
  22   2.0000      -0.637586       -17.3496
  23   2.0000      -0.633858       -17.2482
  24   2.0000      -0.613839       -16.7034
  25   2.0000      -0.591566       -16.0973
  26   2.0000      -0.566893       -15.4259
  27   2.0000      -0.543175       -14.7805
  28   2.0000      -0.524748       -14.2791
  29   2.0000      -0.520642       -14.1674
  30   2.0000      -0.490759       -13.3542
  31   2.0000      -0.465086       -12.6556
  32   2.0000      -0.462231       -12.5779
  33   2.0000      -0.415360       -11.3025
  34   2.0000      -0.379199       -10.3185
  35   0.0000       0.125052         3.4028
  36   0.0000       0.126345         3.4380
  37   0.0000       0.137087         3.7303
  38   0.0000       0.163387         4.4460
  39   0.0000       0.176384         4.7996

MULLIKEN ATOMIC CHARGES
-----------------------
   0 C :   -0.434405
   1 C :   -0.091444
   2 N :   -0.244448
   3 C :    0.051650
   4 N :   -0.290616
   5 C :    0.306037
   6 O :   -0.390996
   7 C :   -0.061204
   8 O :   -0.482040
   9 H :    0.142870
  10 H :    0.135628
  11 H :    0.135598
  12 H :    0.125657
  13 H :    0.125650
  14 H :    0.138938
  15 H :    0.247341
  16 H :    0.122609
  17 H :    0.122565
  18 H :    0.340612
Sum of atomic charges:   -0.0000000

LOEWDIN ATOMIC CHARGES
----------------------
   0 C :   -0.330041
   1 C :   -0.326233
   2 N :    0.078757
   3 C :   -0.285787
   4 N :    0.144282
   5 C :   -0.436822
   6 O :    0.086518
   7 C :   -0.334158
   8 O :   -0.032317
   9 H :    0.127947
  10 H :    0.122519
  11 H :    0.122503
  12 H :    0.136872
  13 H :    0.136880
  14 H :    0.137659
  15 H :    0.201229
  16 H :    0.132470
  17 H :    0.132496
  18 H :    0.185226

  Mayer bond orders larger than 0.1
B(  0-C ,  1-C ) :   0.9168 B(  0-C ,  9-H ) :   0.9291 B(  0-C , 10-H ) :   0.9337
B(  0-C , 11-H ) :   0.9337 B(  1-C ,  2-N ) :   0.9307 B(  1-C , 12-H ) :   0.9259
B(  1-C , 13-H ) :   0.9258 B(  2-N ,  3-C ) :   1.8492 B(  3-C ,  4-N ) :   0.9784
B(  3-C , 14-H ) :   0.9165 B(  4-N ,  5-C ) :   1.1176 B(  4-N , 15-H ) :   0.8562
B(  5-C ,  6-O ) :   1.8132 B(  5-C ,  7-C ) :   0.9452 B(  7-C ,  8-O ) :   1.0316
B(  7-C , 16-H ) :   0.9113 B(  7-C , 17-H ) :   0.9111 B(  8-O , 18-H ) :   0.8002

MP2 TOTAL ENERGY:     -455.637299070 Eh
FINAL SINGLE POINT ENERGY      -455.637299069900

DIPOLE MOMENT
-------------
                                X             Y             Z
Electronic contribution:     -8.12619      -3.63004       0.92673
Nuclear contribution   :      9.18280       3.51540      -1.22861
                        -----------------------------------------
Total Dipole Moment    :      1.05660      -0.11464      -0.30188
                        -----------------------------------------
Magnitude (a.u.)       :      1.10485
Magnitude (Debye)      :      2.80830

                             ****ORCA TERMINATED NORMALLY****
TOTAL RUN TIME: 0 days 0 hours 13 minutes 0 seconds 964 msec
