                         Program Version 3.0.3 - RELEASE   -
|  1> ! RI-MP2 RIJK def2-TZVP def2-TZVP/C def2-TZVP/JK TIGHTSCF
|  2> % maxcore 2000
|  3> % mp2 density relaxed end
|  4> *xyz 0 1
|  5>  C       -0.1832844046     1.3598605397    -0.2755454954
|  6>  C        1.2213304365     1.0718702213     0.1621797725
|  7>  C        0.2150106549    -0.0605317488     0.0790117433
|  8>  C       -0.2961704800    -0.6921214710     1.3040392957
|  9>  N       -0.5757116219    -1.9699161081     1.3625248353
| 10>  O       -1.0209456228    -2.2041945603     2.6367956527
| 11>  N       -1.0192845549    -1.0618835723     3.3807130858
| 12>  C       -0.5805275013    -0.1277582047     2.5859280970
| 13>  H       -0.8398935258     1.8840405910     0.4102608427
| 14>  H       -0.3694853235     1.5749202023    -1.3213659086
| 15>  H        2.0116692558     1.0867114543    -0.5793077405
| 16>  H        1.5309453598     1.3978898923     1.1491335815
| 17>  H        0.3283349671    -0.7572342770    -0.7429733958
| 18>  H       -0.4811967795     0.8887236011     2.9339264639
| 19> *
| 20>
| 21>                          ****END OF INPUT****

CARTESIAN COORDINATES (ANGSTROEM)
---------------------------------
  C     -0.183284    1.359861   -0.275545
  C      1.221330    1.071870    0.162180
  C      0.215011   -0.060532    0.079012
  C     -0.296170   -0.692121    1.304039
  N     -0.575712   -1.969916    1.362525
  O     -1.020946   -2.204195    2.636796
  N     -1.019285   -1.061884    3.380713
  C     -0.580528   -0.127758    2.585928
  H     -0.839894    1.884041    0.410261
  H     -0.369485    1.574920   -1.321366
  H      2.011669    1.086711   -0.579308
  H      1.530945    1.397890    1.149134
  H      0.328335   -0.757234   -0.742973
  H     -0.481197    0.888724    2.933926

 Total Charge           Charge          ....    0
 Multiplicity           Mult            ....    1
 Number of Electrons    NEL             ....   58
 Basis Dimension        Dim             ....  284

ORBITAL ENERGIES
----------------

  NO   OCC          E(Eh)            E(eV)
   0   2.0000     -20.673735      -562.5609
   1   2.0000     -15.657713      -426.0680
   2   2.0000     -15.643819      -425.6900
   3   2.0000     -11.300698      -307.5076
   4   2.0000     -11.292853      -307.2941
   5   2.0000     -11.267708      -306.6099
   6   2.0000     -11.256675      -306.3097
   7   2.0000     -11.255994      -306.2912
   8   2.0000      -1.539134       -41.8820
   9   2.0000      -1.215233       -33.0682
  10   2.0000      -1.192772       -32.4570
  11   2.0000      -1.147702       -31.2306
  12   2.0000      -0.909691       -24.7539
  13   2.0000      -0.866827       -23.5876
  14   2.0000      -0.851116       -23.1600
  15   2.0000      -0.805610       -21.9218
  16   2.0000      -0.726906       -19.7801
  17   2.0000      -0.689927       -18.7739
  18   2.0000      -0.685027       -18.6405
  19   2.0000      -0.652167       -17.7464
  20   2.0000      -0.603797       -16.4302
  21   2.0000      -0.557815       -15.1789
  22   2.0000      -0.544953       -14.8289
  23   2.0000      -0.517247       -14.0750
  24   2.0000      -0.498181       -13.5562
  25   2.0000      -0.487597       -13.2682
  26   2.0000      -0.457217       -12.4415
  27   2.0000      -0.431743       -11.7483
  28   2.0000      -0.391402       -10.6506
  29   0.0000       0.094796         2.5795
  30   0.0000       0.133030         3.6199
  31   0.0000       0.147508         4.0139
  32   0.0000       0.167893         4.5686
  33   0.0000       0.180056         4.8996

MULLIKEN ATOMIC CHARGES
-----------------------
   0 C :   -0.257476
   1 C :   -0.257494
   2 C :   -0.117234
   3 C :    0.079759
   4 N :   -0.084479
   5 O :   -0.011861
   6 N :   -0.090597
   7 C :   -0.137000
   8 H :    0.141760
   9 H :    0.143691
  10 H :    0.143692
  11 H :    0.141777
  12 H :    0.142229
  13 H :    0.163234
Sum of atomic charges:   -0.0000000

LOEWDIN ATOMIC CHARGES
----------------------
   0 C :   -0.209032
   1 C :   -0.209020
   2 C :   -0.186656
   3 C :   -0.280639
   4 N :    0.055492
   5 O :    0.202981
   6 N :    0.023155
   7 C :   -0.250176
   8 H :    0.135661
   9 H :    0.136674
  10 H :    0.136671
  11 H :    0.135667
  12 H :    0.162380
  13 H :    0.146843

  Mayer bond orders larger than 0.1
B(  0-C ,  1-C ) :   0.8893 B(  0-C ,  2-C ) :   0.8562 B(  0-C ,  8-H ) :   0.9318
B(  0-C ,  9-H ) :   0.9286 B(  1-C ,  2-C ) :   0.8561 B(  1-C , 10-H ) :   0.9286
B(  1-C , 11-H ) :   0.9318 B(  2-C ,  3-C ) :   0.9635 B(  2-C , 12-H ) :   0.9250
B(  3-C ,  4-N ) :   1.5826 B(  3-C ,  7-C ) :   1.1624 B(  4-N ,  5-O ) :   0.9243
B(  4-N ,  6-N ) :   0.1212 B(  5-O ,  6-N ) :   0.9575 B(  6-N ,  7-C ) :   1.5859
B(  7-C , 13-H ) :   0.9223

MP2 TOTAL ENERGY:     -378.026254030 Eh
FINAL SINGLE POINT ENERGY      -378.026254029795

DIPOLE MOMENT
-------------
                                X             Y             Z
Electronic contribution:     -3.15450      -7.01505       5.51085
Nuclear contribution   :      3.66280       8.37063      -6.25176
                        -----------------------------------------
Total Dipole Moment    :      0.50830       1.35557      -0.74091
                        -----------------------------------------
Magnitude (a.u.)       :      1.62632
Magnitude (Debye)      :      4.13377

                             ****ORCA TERMINATED NORMALLY****
TOTAL RUN TIME: 0 days 0 hours 10 minutes 51 seconds 220 msec
