                         Program Version 3.0.3 - RELEASE   -
|  1> ! RI-MP2 RIJK def2-TZVP def2-TZVP/C def2-TZVP/JK TIGHTSCF
|  2> % maxcore 2000
|  3> % mp2 density relaxed end
|  4> *xyz 0 1
|  5>  C       -0.3034236302     1.5076591286     0.0014761450
|  6>  C        0.0861649014     0.0324728323     0.0123454082
|  7>  C        0.9637947527    -0.3713295518    -1.1957323999
|  8>  C        1.3484740751    -1.8471718068    -1.1653244247
|  9>  C        2.6773043086    -2.2600260745    -0.6338306249
| 10>  N        1.4636520177    -2.5705721181     0.1130127067
| 11>  C        1.2177319043    -1.8465445799     1.3622509226
| 12>  C        0.8368455543    -0.3664673583     1.2737648049
| 13>  O        1.0913405227     0.4022263946     2.1719885263
| 14>  H        0.5853410359     2.1445362902     0.0384773109
| 15>  H       -0.8653479256     1.7511932070    -0.9054686158
| 16>  H       -0.9173511991     1.7576368790     0.8698938168
| 17>  H       -0.8179147521    -0.5948952507    -0.0189285066
| 18>  H        0.4223260493    -0.1534708459    -2.1214257978
| 19>  H        1.8577671901     0.2633663142    -1.2051525481
| 20>  H        0.8976759171    -2.4546084855    -1.9472362906
| 21>  H        3.2078692394    -3.1170958509    -1.0408556095
| 22>  H        3.3226909334    -1.4617405174    -0.2665411955
| 23>  H        0.3640364096    -2.3315949424     1.8603139474
| 24>  H        2.0714932754    -1.9490556435     2.0381068146
| 25> *
| 26>
| 27>                          ****END OF INPUT****

CARTESIAN COORDINATES (ANGSTROEM)
---------------------------------
  C     -0.303424    1.507659    0.001476
  C      0.086165    0.032473    0.012345
  C      0.963795   -0.371330   -1.195732
  C      1.348474   -1.847172   -1.165324
  C      2.677304   -2.260026   -0.633831
  N      1.463652   -2.570572    0.113013
  C      1.217732   -1.846545    1.362251
  C      0.836846   -0.366467    1.273765
  O      1.091341    0.402226    2.171989
  H      0.585341    2.144536    0.038477
  H     -0.865348    1.751193   -0.905469
  H     -0.917351    1.757637    0.869894
  H     -0.817915   -0.594895   -0.018929
  H      0.422326   -0.153471   -2.121426
  H      1.857767    0.263366   -1.205153
  H      0.897676   -2.454608   -1.947236
  H      3.207869   -3.117096   -1.040856
  H      3.322691   -1.461741   -0.266541
  H      0.364036   -2.331595    1.860314
  H      2.071493   -1.949056    2.038107

 Total Charge           Charge          ....    0
 Multiplicity           Mult            ....    1
 Number of Electrons    NEL             ....   68
 Basis Dimension        Dim             ....  345

ORBITAL ENERGIES
----------------

  NO   OCC          E(Eh)            E(eV)
   0   2.0000     -20.546936      -559.1106
   1   2.0000     -15.568814      -423.6490
   2   2.0000     -11.327830      -308.2459
   3   2.0000     -11.271008      -306.6997
   4   2.0000     -11.265372      -306.5463
   5   2.0000     -11.261053      -306.4288
   6   2.0000     -11.248167      -306.0782
   7   2.0000     -11.245323      -306.0008
   8   2.0000     -11.219795      -305.3061
   9   2.0000      -1.390849       -37.8469
  10   2.0000      -1.283972       -34.9386
  11   2.0000      -1.095218       -29.8024
  12   2.0000      -1.034592       -28.1527
  13   2.0000      -0.964270       -26.2391
  14   2.0000      -0.873870       -23.7792
  15   2.0000      -0.844871       -22.9901
  16   2.0000      -0.813790       -22.1444
  17   2.0000      -0.725575       -19.7439
  18   2.0000      -0.680783       -18.5250
  19   2.0000      -0.671418       -18.2702
  20   2.0000      -0.638607       -17.3774
  21   2.0000      -0.628246       -17.0954
  22   2.0000      -0.613367       -16.6906
  23   2.0000      -0.585773       -15.9397
  24   2.0000      -0.553455       -15.0603
  25   2.0000      -0.551567       -15.0089
  26   2.0000      -0.533945       -14.5294
  27   2.0000      -0.514010       -13.9869
  28   2.0000      -0.501368       -13.6429
  29   2.0000      -0.490837       -13.3564
  30   2.0000      -0.468657       -12.7528
  31   2.0000      -0.449743       -12.2381
  32   2.0000      -0.415937       -11.3182
  33   2.0000      -0.366814        -9.9815
  34   0.0000       0.118819         3.2332
  35   0.0000       0.153234         4.1697
  36   0.0000       0.156266         4.2522
  37   0.0000       0.159824         4.3490
  38   0.0000       0.167784         4.5656

MULLIKEN ATOMIC CHARGES
-----------------------
   0 C :   -0.381238
   1 C :   -0.040493
   2 C :   -0.290745
   3 C :   -0.016723
   4 C :   -0.213820
   5 N :   -0.222679
   6 C :   -0.136721
   7 C :    0.111736
   8 O :   -0.276145
   9 H :    0.132124
  10 H :    0.131991
  11 H :    0.144762
  12 H :    0.115067
  13 H :    0.135522
  14 H :    0.140574
  15 H :    0.129981
  16 H :    0.129668
  17 H :    0.124852
  18 H :    0.140267
  19 H :    0.142021
Sum of atomic charges:   -0.0000000

LOEWDIN ATOMIC CHARGES
----------------------
   0 C :   -0.285134
   1 C :   -0.250593
   2 C :   -0.217254
   3 C :   -0.244854
   4 C :   -0.245012
   5 N :    0.109660
   6 C :   -0.255249
   7 C :   -0.307981
   8 O :    0.157592
   9 H :    0.129502
  10 H :    0.124133
  11 H :    0.130554
  12 H :    0.168736
  13 H :    0.146624
  14 H :    0.147225
  15 H :    0.141527
  16 H :    0.124589
  17 H :    0.126628
  18 H :    0.153646
  19 H :    0.145662

  Mayer bond orders larger than 0.1
B(  0-C ,  1-C ) :   0.9202 B(  0-C ,  9-H ) :   0.9296 B(  0-C , 10-H ) :   0.9399
B(  0-C , 11-H ) :   0.9360 B(  1-C ,  2-C ) :   0.8784 B(  1-C ,  7-C ) :   0.9004
B(  1-C , 12-H ) :   0.9029 B(  2-C ,  3-C ) :   0.9017 B(  2-C , 13-H ) :   0.9299
B(  2-C , 14-H ) :   0.9345 B(  3-C ,  4-C ) :   0.9379 B(  3-C ,  5-N ) :   0.9092
B(  3-C , 15-H ) :   0.9206 B(  4-C ,  5-N ) :   0.8924 B(  4-C , 16-H ) :   0.9248
B(  4-C , 17-H ) :   0.9126 B(  5-N ,  6-C ) :   0.9220 B(  6-C ,  7-C ) :   0.9253
B(  6-C , 18-H ) :   0.9015 B(  6-C , 19-H ) :   0.9292 B(  7-C ,  8-O ) :   2.0306

MP2 TOTAL ENERGY:     -402.452835586 Eh
FINAL SINGLE POINT ENERGY      -402.452835586482

DIPOLE MOMENT
-------------
                                X             Y             Z
Electronic contribution:      1.12172      -2.39006       4.03145
Nuclear contribution   :     -1.22653       2.29188      -4.93352
                        -----------------------------------------
Total Dipole Moment    :     -0.10480      -0.09817      -0.90208
                        -----------------------------------------
Magnitude (a.u.)       :      0.91344
Magnitude (Debye)      :      2.32177

                             ****ORCA TERMINATED NORMALLY****
TOTAL RUN TIME: 0 days 0 hours 21 minutes 2 seconds 147 msec
