                         Program Version 3.0.3 - RELEASE   -
|  1> ! RI-MP2 RIJK def2-TZVP def2-TZVP/C def2-TZVP/JK TIGHTSCF
|  2> % maxcore 2000
|  3> % mp2 density relaxed end
|  4> *xyz 0 1
|  5>  O       -0.0287972574     1.4791562924    -0.3357199705
|  6>  C        0.0436315697     0.1821541105     0.2180422083
|  7>  C       -1.3148819886    -0.4950218249     0.1005498248
|  8>  O       -1.7023945059    -0.5572316472    -1.2971235688
|  9>  C       -1.7032615554    -2.0024210315    -1.2866194078
| 10>  C       -1.4426935139    -2.0365118184     0.2343050206
| 11>  C       -0.2475868211    -2.8506140137     0.7487035875
| 12>  C       -0.4902232298    -4.2882952404     0.6340774460
| 13>  N       -0.7041757881    -5.4188920454     0.5288072513
| 14>  H       -0.4013365527     1.3685386140    -1.2198747729
| 15>  H        0.8170477613    -0.4207433760    -0.2845800271
| 16>  H        0.3327221454     0.2944494108     1.2691667055
| 17>  H       -2.0505652556     0.0784837402     0.6770520169
| 18>  H       -2.6587261872    -2.4131799695    -1.6269471751
| 19>  H       -0.8964861772    -2.4203395574    -1.9029978807
| 20>  H       -2.3328806240    -2.3190945363     0.7992181026
| 21>  H        0.6634386385    -2.6115571888     0.1901895989
| 22>  H       -0.0473414478    -2.6153563783     1.8004598705
| 23> *
| 24>
| 25>                          ****END OF INPUT****

CARTESIAN COORDINATES (ANGSTROEM)
---------------------------------
  O     -0.028797    1.479156   -0.335720
  C      0.043632    0.182154    0.218042
  C     -1.314882   -0.495022    0.100550
  O     -1.702395   -0.557232   -1.297124
  C     -1.703262   -2.002421   -1.286619
  C     -1.442694   -2.036512    0.234305
  C     -0.247587   -2.850614    0.748704
  C     -0.490223   -4.288295    0.634077
  N     -0.704176   -5.418892    0.528807
  H     -0.401337    1.368539   -1.219875
  H      0.817048   -0.420743   -0.284580
  H      0.332722    0.294449    1.269167
  H     -2.050565    0.078484    0.677052
  H     -2.658726   -2.413180   -1.626947
  H     -0.896486   -2.420340   -1.902998
  H     -2.332881   -2.319095    0.799218
  H      0.663439   -2.611557    0.190190
  H     -0.047341   -2.615356    1.800460

 Total Charge           Charge          ....    0
 Multiplicity           Mult            ....    1
 Number of Electrons    NEL             ....   68
 Basis Dimension        Dim             ....  333

ORBITAL ENERGIES
----------------

  NO   OCC          E(Eh)            E(eV)
   0   2.0000     -20.572736      -559.8126
   1   2.0000     -20.565271      -559.6095
   2   2.0000     -15.580848      -423.9764
   3   2.0000     -11.306635      -307.6692
   4   2.0000     -11.303104      -307.5731
   5   2.0000     -11.300374      -307.4988
   6   2.0000     -11.293758      -307.3188
   7   2.0000     -11.284838      -307.0761
   8   2.0000     -11.275843      -306.8313
   9   2.0000      -1.407651       -38.3041
  10   2.0000      -1.368204       -37.2307
  11   2.0000      -1.230683       -33.4886
  12   2.0000      -1.110797       -30.2263
  13   2.0000      -1.014216       -27.5982
  14   2.0000      -0.977984       -26.6123
  15   2.0000      -0.895006       -24.3544
  16   2.0000      -0.777532       -21.1577
  17   2.0000      -0.743725       -20.2378
  18   2.0000      -0.707127       -19.2419
  19   2.0000      -0.702957       -19.1284
  20   2.0000      -0.670743       -18.2519
  21   2.0000      -0.643797       -17.5186
  22   2.0000      -0.635088       -17.2816
  23   2.0000      -0.596355       -16.2277
  24   2.0000      -0.584717       -15.9110
  25   2.0000      -0.567412       -15.4401
  26   2.0000      -0.563838       -15.3428
  27   2.0000      -0.542771       -14.7696
  28   2.0000      -0.499621       -13.5954
  29   2.0000      -0.484542       -13.1850
  30   2.0000      -0.472940       -12.8693
  31   2.0000      -0.465052       -12.6547
  32   2.0000      -0.461713       -12.5639
  33   2.0000      -0.429312       -11.6822
  34   0.0000       0.109651         2.9838
  35   0.0000       0.137187         3.7330
  36   0.0000       0.144278         3.9260
  37   0.0000       0.152644         4.1536
  38   0.0000       0.167839         4.5671

MULLIKEN ATOMIC CHARGES
-----------------------
   0 O :   -0.469821
   1 C :   -0.026023
   2 C :    0.073646
   3 O :   -0.349522
   4 C :   -0.040580
   5 C :   -0.126761
   6 C :   -0.166564
   7 C :   -0.175972
   8 N :   -0.050071
   9 H :    0.331727
  10 H :    0.093400
  11 H :    0.114179
  12 H :    0.103537
  13 H :    0.120457
  14 H :    0.105508
  15 H :    0.137503
  16 H :    0.160272
  17 H :    0.165083
Sum of atomic charges:    0.0000000

LOEWDIN ATOMIC CHARGES
----------------------
   0 O :   -0.034871
   1 C :   -0.336800
   2 C :   -0.267726
   3 O :    0.124635
   4 C :   -0.238249
   5 C :   -0.203079
   6 C :   -0.229113
   7 C :   -0.189839
   8 N :    0.062716
   9 H :    0.181666
  10 H :    0.117868
  11 H :    0.132269
  12 H :    0.140681
  13 H :    0.123661
  14 H :    0.123593
  15 H :    0.158763
  16 H :    0.165513
  17 H :    0.168312

  Mayer bond orders larger than 0.1
B(  0-O ,  1-C ) :   0.9348 B(  0-O ,  9-H ) :   0.8281 B(  1-C ,  2-C ) :   0.9280
B(  1-C , 10-H ) :   0.9165 B(  1-C , 11-H ) :   0.9236 B(  2-C ,  3-O ) :   0.9068
B(  2-C ,  5-C ) :   0.9067 B(  2-C , 12-H ) :   0.9143 B(  3-O ,  4-C ) :   0.9361
B(  4-C ,  5-C ) :   0.9584 B(  4-C , 13-H ) :   0.9176 B(  4-C , 14-H ) :   0.9067
B(  5-C ,  6-C ) :   0.9083 B(  5-C , 15-H ) :   0.9172 B(  6-C ,  7-C ) :   0.9339
B(  6-C , 16-H ) :   0.9134 B(  6-C , 17-H ) :   0.9017 B(  7-C ,  8-N ) :   2.8718

MP2 TOTAL ENERGY:     -438.354687990 Eh
FINAL SINGLE POINT ENERGY      -438.354687990266

DIPOLE MOMENT
-------------
                                X             Y             Z
Electronic contribution:     -0.79824      -3.17221      -0.17725
Nuclear contribution   :      0.87851       3.63376       0.44723
                        -----------------------------------------
Total Dipole Moment    :      0.08028       0.46155       0.26998
                        -----------------------------------------
Magnitude (a.u.)       :      0.54071
Magnitude (Debye)      :      1.37437

                             ****ORCA TERMINATED NORMALLY****
TOTAL RUN TIME: 0 days 0 hours 14 minutes 58 seconds 703 msec
