                         Program Version 3.0.3 - RELEASE   -
|  1> ! RI-MP2 RIJK def2-TZVP def2-TZVP/C def2-TZVP/JK TIGHTSCF
|  2> % maxcore 2000
|  3> % mp2 density relaxed end
|  4> *xyz 0 1
|  5>  O       -0.1172441144     1.3864011035     0.1357828338
|  6>  N        0.0784524299    -0.0046130077     0.1430595977
|  7>  C       -1.0043210529    -0.6197489599    -0.0702702684
|  8>  C       -2.4871952922    -0.2067960932    -0.2855574834
|  9>  C       -2.6570667300    -1.6802251676    -0.6964934766
| 10>  C       -3.1333527309    -3.1510406531    -0.7978761696
| 11>  C       -1.6188385547    -3.0216066990    -1.2522684453
| 12>  O       -1.9955493677    -1.8438621209    -2.0279912501
| 13>  C       -1.3334155448    -2.1140484357    -0.0231299809
| 14>  H        0.7730536818     1.7186540390     0.2946757116
| 15>  H       -2.9660405733     0.0537409226     0.6636388847
| 16>  H       -2.7112414153     0.5469552901    -1.0416937922
| 17>  H       -3.3556780128    -3.6697900601     0.1377053938
| 18>  H       -3.8275023973    -3.3949077893    -1.6030617357
| 19>  H       -1.0013105005    -3.7797293115    -1.7399630315
| 20>  H       -1.3428447249    -2.5620757372     0.9727817221
| 21> *
| 22>
| 23>                          ****END OF INPUT****

CARTESIAN COORDINATES (ANGSTROEM)
---------------------------------
  O     -0.117244    1.386401    0.135783
  N      0.078452   -0.004613    0.143060
  C     -1.004321   -0.619749   -0.070270
  C     -2.487195   -0.206796   -0.285557
  C     -2.657067   -1.680225   -0.696493
  C     -3.133353   -3.151041   -0.797876
  C     -1.618839   -3.021607   -1.252268
  O     -1.995549   -1.843862   -2.027991
  C     -1.333416   -2.114048   -0.023130
  H      0.773054    1.718654    0.294676
  H     -2.966041    0.053741    0.663639
  H     -2.711241    0.546955   -1.041694
  H     -3.355678   -3.669790    0.137705
  H     -3.827502   -3.394908   -1.603062
  H     -1.001311   -3.779729   -1.739963
  H     -1.342845   -2.562076    0.972782

 Total Charge           Charge          ....    0
 Multiplicity           Mult            ....    1
 Number of Electrons    NEL             ....   66
 Basis Dimension        Dim             ....  321

ORBITAL ENERGIES
----------------

  NO   OCC          E(Eh)            E(eV)
   0   2.0000     -20.592718      -560.3563
   1   2.0000     -20.554911      -559.3276
   2   2.0000     -15.617362      -424.9700
   3   2.0000     -11.323187      -308.1196
   4   2.0000     -11.317341      -307.9605
   5   2.0000     -11.291073      -307.2457
   6   2.0000     -11.264249      -306.5158
   7   2.0000     -11.261595      -306.4436
   8   2.0000     -11.248032      -306.0745
   9   2.0000      -1.420779       -38.6614
  10   2.0000      -1.413702       -38.4688
  11   2.0000      -1.174904       -31.9708
  12   2.0000      -1.097200       -29.8563
  13   2.0000      -1.036326       -28.1999
  14   2.0000      -0.933641       -25.4057
  15   2.0000      -0.843996       -22.9663
  16   2.0000      -0.782340       -21.2885
  17   2.0000      -0.718904       -19.5624
  18   2.0000      -0.696256       -18.9461
  19   2.0000      -0.686135       -18.6707
  20   2.0000      -0.652143       -17.7457
  21   2.0000      -0.640611       -17.4319
  22   2.0000      -0.618363       -16.8265
  23   2.0000      -0.583136       -15.8679
  24   2.0000      -0.580360       -15.7924
  25   2.0000      -0.532701       -14.4955
  26   2.0000      -0.513585       -13.9754
  27   2.0000      -0.494925       -13.4676
  28   2.0000      -0.485228       -13.2037
  29   2.0000      -0.435833       -11.8596
  30   2.0000      -0.422110       -11.4862
  31   2.0000      -0.399868       -10.8810
  32   2.0000      -0.381405       -10.3786
  33   0.0000       0.135600         3.6899
  34   0.0000       0.141633         3.8540
  35   0.0000       0.154307         4.1989
  36   0.0000       0.167764         4.5651
  37   0.0000       0.179290         4.8787

MULLIKEN ATOMIC CHARGES
-----------------------
   0 O :   -0.356987
   1 N :   -0.055531
   2 C :   -0.055271
   3 C :   -0.161282
   4 C :   -0.008317
   5 C :   -0.123848
   6 C :   -0.016897
   7 O :   -0.302385
   8 C :   -0.055072
   9 H :    0.339091
  10 H :    0.137626
  11 H :    0.143354
  12 H :    0.122191
  13 H :    0.128145
  14 H :    0.142055
  15 H :    0.123128
Sum of atomic charges:   -0.0000000

LOEWDIN ATOMIC CHARGES
----------------------
   0 O :   -0.070402
   1 N :    0.031645
   2 C :   -0.248918
   3 C :   -0.165229
   4 C :   -0.223838
   5 C :   -0.169775
   6 C :   -0.215203
   7 O :    0.167901
   8 C :   -0.111439
   9 H :    0.171205
  10 H :    0.151738
  11 H :    0.145100
  12 H :    0.130893
  13 H :    0.132810
  14 H :    0.124087
  15 H :    0.149426

  Mayer bond orders larger than 0.1
B(  0-O ,  1-N ) :   0.8072 B(  0-O ,  9-H ) :   0.8421 B(  1-N ,  2-C ) :   1.8693
B(  2-C ,  3-C ) :   0.9321 B(  2-C ,  8-C ) :   0.9321 B(  3-C ,  4-C ) :   0.9311
B(  3-C , 10-H ) :   0.9007 B(  3-C , 11-H ) :   0.8917 B(  4-C ,  5-C ) :   0.8784
B(  4-C ,  6-C ) :   0.1069 B(  4-C ,  7-O ) :   0.8716 B(  4-C ,  8-C ) :   0.8633
B(  5-C ,  6-C ) :   0.9035 B(  5-C , 12-H ) :   0.9094 B(  5-C , 13-H ) :   0.9167
B(  6-C ,  7-O ) :   0.9127 B(  6-C ,  8-C ) :   0.8723 B(  6-C , 14-H ) :   0.8838
B(  8-C , 15-H ) :   0.9311

MP2 TOTAL ENERGY:     -436.979368007 Eh
FINAL SINGLE POINT ENERGY      -436.979368006960

DIPOLE MOMENT
-------------
                                X             Y             Z
Electronic contribution:      2.96339       2.18990      -0.73989
Nuclear contribution   :     -3.32345      -2.58875       1.39576
                        -----------------------------------------
Total Dipole Moment    :     -0.36005      -0.39885       0.65587
                        -----------------------------------------
Magnitude (a.u.)       :      0.84787
Magnitude (Debye)      :      2.15513

                             ****ORCA TERMINATED NORMALLY****
TOTAL RUN TIME: 0 days 0 hours 16 minutes 9 seconds 232 msec
