                         Program Version 3.0.3 - RELEASE   -
|  1> ! RI-MP2 RIJK def2-TZVP def2-TZVP/C def2-TZVP/JK TIGHTSCF
|  2> % maxcore 2000
|  3> % mp2 density relaxed end
|  4> *xyz 0 1
|  5>  O        0.0143171528    -0.0583369533     0.1286733789
|  6>  C       -0.0052049233     1.1470575479    -0.0127036267
|  7>  C       -1.3078544910     1.9459208027    -0.0708226181
|  8>  N       -1.2356038390     3.1720663439    -0.8665962226
|  9>  C       -0.1186977267     4.0358880247    -0.4612488362
| 10>  C        1.1883763326     3.2874579875    -0.2397592909
| 11>  C        1.2293709932     1.9600344791    -0.0811520640
| 12>  C        0.0665074165     5.1119891611    -1.4353927023
| 13>  C        0.2439564560     5.9780244660    -2.2482200662
| 14>  H       -2.1027044587     1.3016918676    -0.4542075442
| 15>  H       -1.5820180404     2.2124131864     0.9609079347
| 16>  H       -1.1089302898     2.9331653118    -1.8458887295
| 17>  H       -0.3982250727     4.4971637798     0.5025012219
| 18>  H        2.0942220818     3.8877375001    -0.2084013450
| 19>  H        2.1646864505     1.4251746757     0.0534835661
| 20>  H        0.3889840481     6.7514300190    -2.9618119960
| 21> *
| 22>
| 23>                          ****END OF INPUT****

CARTESIAN COORDINATES (ANGSTROEM)
---------------------------------
  O      0.014317   -0.058337    0.128673
  C     -0.005205    1.147058   -0.012704
  C     -1.307854    1.945921   -0.070823
  N     -1.235604    3.172066   -0.866596
  C     -0.118698    4.035888   -0.461249
  C      1.188376    3.287458   -0.239759
  C      1.229371    1.960034   -0.081152
  C      0.066507    5.111989   -1.435393
  C      0.243956    5.978024   -2.248220
  H     -2.102704    1.301692   -0.454208
  H     -1.582018    2.212413    0.960908
  H     -1.108930    2.933165   -1.845889
  H     -0.398225    4.497164    0.502501
  H      2.094222    3.887738   -0.208401
  H      2.164686    1.425175    0.053484
  H      0.388984    6.751430   -2.961812

 Total Charge           Charge          ....    0
 Multiplicity           Mult            ....    1
 Number of Electrons    NEL             ....   64
 Basis Dimension        Dim             ....  321

ORBITAL ENERGIES
----------------

  NO   OCC          E(Eh)            E(eV)
   0   2.0000     -20.548814      -559.1616
   1   2.0000     -15.574585      -423.8060
   2   2.0000     -11.334026      -308.4145
   3   2.0000     -11.314631      -307.8868
   4   2.0000     -11.277751      -306.8832
   5   2.0000     -11.273431      -306.7656
   6   2.0000     -11.251242      -306.1619
   7   2.0000     -11.250691      -306.1469
   8   2.0000     -11.243241      -305.9441
   9   2.0000      -1.389915       -37.8215
  10   2.0000      -1.251786       -34.0628
  11   2.0000      -1.096016       -29.8241
  12   2.0000      -1.067283       -29.0423
  13   2.0000      -0.999981       -27.2109
  14   2.0000      -0.912238       -24.8233
  15   2.0000      -0.851097       -23.1595
  16   2.0000      -0.754402       -20.5283
  17   2.0000      -0.742139       -20.1946
  18   2.0000      -0.703799       -19.1513
  19   2.0000      -0.674735       -18.3605
  20   2.0000      -0.659128       -17.9358
  21   2.0000      -0.625446       -17.0193
  22   2.0000      -0.603840       -16.4313
  23   2.0000      -0.587226       -15.9792
  24   2.0000      -0.578153       -15.7323
  25   2.0000      -0.550280       -14.9739
  26   2.0000      -0.507466       -13.8088
  27   2.0000      -0.465530       -12.6677
  28   2.0000      -0.416197       -11.3253
  29   2.0000      -0.409303       -11.1377
  30   2.0000      -0.392141       -10.6707
  31   2.0000      -0.380434       -10.3521
  32   0.0000       0.080056         2.1784
  33   0.0000       0.125152         3.4056
  34   0.0000       0.151233         4.1153
  35   0.0000       0.159452         4.3389
  36   0.0000       0.162207         4.4139

MULLIKEN ATOMIC CHARGES
-----------------------
   0 O :   -0.283319
   1 C :    0.181901
   2 C :   -0.159967
   3 N :   -0.307531
   4 C :   -0.083005
   5 C :   -0.136098
   6 C :   -0.178513
   7 C :   -0.057072
   8 C :   -0.093178
   9 H :    0.159245
  10 H :    0.128347
  11 H :    0.213583
  12 H :    0.126333
  13 H :    0.144867
  14 H :    0.145701
  15 H :    0.198705
Sum of atomic charges:    0.0000000

LOEWDIN ATOMIC CHARGES
----------------------
   0 O :    0.148747
   1 C :   -0.334650
   2 C :   -0.264167
   3 N :    0.020635
   4 C :   -0.278446
   5 C :   -0.091129
   6 C :   -0.131570
   7 C :   -0.083819
   8 C :   -0.079191
   9 H :    0.146956
  10 H :    0.149707
  11 H :    0.180957
  12 H :    0.177540
  13 H :    0.153582
  14 H :    0.154900
  15 H :    0.129950

  Mayer bond orders larger than 0.1
B(  0-O ,  1-C ) :   1.9668 B(  1-C ,  2-C ) :   0.8914 B(  1-C ,  6-C ) :   1.0030
B(  2-C ,  3-N ) :   0.9415 B(  2-C ,  9-H ) :   0.9287 B(  2-C , 10-H ) :   0.9017
B(  3-N ,  4-C ) :   1.0426 B(  3-N , 11-H ) :   0.8743 B(  4-C ,  5-C ) :   0.9398
B(  4-C ,  7-C ) :   1.1555 B(  4-C ,  8-C ) :  -0.1201 B(  4-C , 12-H ) :   0.8741
B(  5-C ,  6-C ) :   1.6854 B(  5-C , 13-H ) :   0.9135 B(  6-C , 14-H ) :   0.9201
B(  7-C ,  8-C ) :   2.5797 B(  8-C , 15-H ) :   0.8876

MP2 TOTAL ENERGY:     -400.019915286 Eh
FINAL SINGLE POINT ENERGY      -400.019915285999

DIPOLE MOMENT
-------------
                                X             Y             Z
Electronic contribution:      0.76506      -1.63976      -0.19140
Nuclear contribution   :     -0.40521       2.64903       0.02438
                        -----------------------------------------
Total Dipole Moment    :      0.35984       1.00927      -0.16702
                        -----------------------------------------
Magnitude (a.u.)       :      1.08444
Magnitude (Debye)      :      2.75643

                             ****ORCA TERMINATED NORMALLY****
TOTAL RUN TIME: 0 days 0 hours 15 minutes 23 seconds 403 msec
