                         Program Version 3.0.3 - RELEASE   -
|  1> ! RI-MP2 RIJK def2-TZVP def2-TZVP/C def2-TZVP/JK TIGHTSCF
|  2> % maxcore 2000
|  3> % mp2 density relaxed end
|  4> *xyz 0 1
|  5>  C       -0.0935316189     0.7741219527    -2.0939218762
|  6>  C        0.0855215503    -0.3555936255    -1.1020413156
|  7>  C        1.3876533144    -0.6107682029    -0.3596570707
|  8>  C        2.6277331328     0.2383229898    -0.5434738649
|  9>  C        0.1845567369    -0.0960159087     0.3760318116
| 10>  C        0.0073349444     1.2228870333     1.1210783160
| 11>  O       -0.7737888215     0.5662968932     2.1419432093
| 12>  C       -0.6001781303    -0.7367287817     1.5246620646
| 13>  C       -1.9238003108    -1.4128816674     1.2258907178
| 14>  H        0.4327941087     1.6823737527    -1.7876341555
| 15>  H        0.2808109895     0.4944698263    -3.0847876275
| 16>  H       -1.1527430131     1.0332373298    -2.2010166797
| 17>  H       -0.4603224779    -1.2578012910    -1.3717210141
| 18>  H        1.6059739755    -1.6640991015    -0.1895560840
| 19>  H        2.3897551860     1.2983637722    -0.6676458321
| 20>  H        3.2883706844     0.1543757327     0.3266059078
| 21>  H        3.1980776907    -0.0773529258    -1.4239298379
| 22>  H        0.9248314344     1.6680459925     1.5302722229
| 23>  H       -0.5660229729     2.0060522225     0.6074851505
| 24>  H        0.0178749226    -1.3820014900     2.1677119157
| 25>  H       -2.5369601917    -0.7937167553     0.5646017725
| 26>  H       -1.7632981783    -2.3855690838     0.7471447596
| 27>  H       -2.4772449452    -1.5815794441     2.1551004299
| 28> *
| 29>
| 30>                          ****END OF INPUT****

CARTESIAN COORDINATES (ANGSTROEM)
---------------------------------
  C     -0.093532    0.774122   -2.093922
  C      0.085522   -0.355594   -1.102041
  C      1.387653   -0.610768   -0.359657
  C      2.627733    0.238323   -0.543474
  C      0.184557   -0.096016    0.376032
  C      0.007335    1.222887    1.121078
  O     -0.773789    0.566297    2.141943
  C     -0.600178   -0.736729    1.524662
  C     -1.923800   -1.412882    1.225891
  H      0.432794    1.682374   -1.787634
  H      0.280811    0.494470   -3.084788
  H     -1.152743    1.033237   -2.201017
  H     -0.460322   -1.257801   -1.371721
  H      1.605974   -1.664099   -0.189556
  H      2.389755    1.298364   -0.667646
  H      3.288371    0.154376    0.326606
  H      3.198078   -0.077353   -1.423930
  H      0.924831    1.668046    1.530272
  H     -0.566023    2.006052    0.607485
  H      0.017875   -1.382001    2.167712
  H     -2.536960   -0.793717    0.564602
  H     -1.763298   -2.385569    0.747145
  H     -2.477245   -1.581579    2.155100

 Total Charge           Charge          ....    0
 Multiplicity           Mult            ....    1
 Number of Electrons    NEL             ....   70
 Basis Dimension        Dim             ....  363

ORBITAL ENERGIES
----------------

  NO   OCC          E(Eh)            E(eV)
   0   2.0000     -20.539844      -558.9176
   1   2.0000     -11.277932      -306.8881
   2   2.0000     -11.273150      -306.7580
   3   2.0000     -11.233039      -305.6665
   4   2.0000     -11.232236      -305.6447
   5   2.0000     -11.231374      -305.6212
   6   2.0000     -11.221683      -305.3575
   7   2.0000     -11.221660      -305.3569
   8   2.0000     -11.213577      -305.1369
   9   2.0000      -1.370346       -37.2890
  10   2.0000      -1.155550       -31.4441
  11   2.0000      -1.012872       -27.5616
  12   2.0000      -0.985574       -26.8188
  13   2.0000      -0.961926       -26.1753
  14   2.0000      -0.911211       -24.7953
  15   2.0000      -0.853981       -23.2380
  16   2.0000      -0.759876       -20.6773
  17   2.0000      -0.716127       -19.4868
  18   2.0000      -0.685052       -18.6412
  19   2.0000      -0.649243       -17.6668
  20   2.0000      -0.627471       -17.0744
  21   2.0000      -0.597920       -16.2702
  22   2.0000      -0.580085       -15.7849
  23   2.0000      -0.566029       -15.4024
  24   2.0000      -0.560540       -15.2531
  25   2.0000      -0.543794       -14.7974
  26   2.0000      -0.542245       -14.7552
  27   2.0000      -0.531798       -14.4710
  28   2.0000      -0.519981       -14.1494
  29   2.0000      -0.500050       -13.6071
  30   2.0000      -0.485860       -13.2209
  31   2.0000      -0.443230       -12.0609
  32   2.0000      -0.433347       -11.7920
  33   2.0000      -0.386595       -10.5198
  34   2.0000      -0.379868       -10.3367
  35   0.0000       0.126385         3.4391
  36   0.0000       0.145494         3.9591
  37   0.0000       0.158924         4.3245
  38   0.0000       0.170199         4.6314
  39   0.0000       0.188349         5.1252

MULLIKEN ATOMIC CHARGES
-----------------------
   0 C :   -0.426206
   1 C :   -0.065071
   2 C :   -0.064519
   3 C :   -0.437520
   4 C :   -0.097838
   5 C :   -0.020599
   6 O :   -0.332229
   7 C :    0.147623
   8 C :   -0.416861
   9 H :    0.125826
  10 H :    0.137413
  11 H :    0.139369
  12 H :    0.120022
  13 H :    0.118805
  14 H :    0.126186
  15 H :    0.140319
  16 H :    0.137499
  17 H :    0.097074
  18 H :    0.097999
  19 H :    0.078206
  20 H :    0.131327
  21 H :    0.120621
  22 H :    0.142556
Sum of atomic charges:    0.0000000

LOEWDIN ATOMIC CHARGES
----------------------
   0 C :   -0.290582
   1 C :   -0.196939
   2 C :   -0.197880
   3 C :   -0.290576
   4 C :   -0.185823
   5 C :   -0.230261
   6 O :    0.135229
   7 C :   -0.265113
   8 C :   -0.294358
   9 H :    0.124373
  10 H :    0.127017
  11 H :    0.127512
  12 H :    0.151207
  13 H :    0.150847
  14 H :    0.124501
  15 H :    0.127675
  16 H :    0.126799
  17 H :    0.119370
  18 H :    0.119323
  19 H :    0.135582
  20 H :    0.126873
  21 H :    0.126011
  22 H :    0.129215

  Mayer bond orders larger than 0.1
B(  0-C ,  1-C ) :   0.8871 B(  0-C ,  9-H ) :   0.9401 B(  0-C , 10-H ) :   0.9387
B(  0-C , 11-H ) :   0.9392 B(  1-C ,  2-C ) :   0.9125 B(  1-C ,  4-C ) :   0.8380
B(  1-C , 12-H ) :   0.9215 B(  2-C ,  3-C ) :   0.8782 B(  2-C ,  4-C ) :   0.8463
B(  2-C , 13-H ) :   0.9221 B(  3-C , 14-H ) :   0.9416 B(  3-C , 15-H ) :   0.9395
B(  3-C , 16-H ) :   0.9394 B(  4-C ,  5-C ) :   0.9766 B(  4-C ,  7-C ) :   0.9294
B(  5-C ,  6-O ) :   0.9637 B(  5-C , 17-H ) :   0.9097 B(  5-C , 18-H ) :   0.9093
B(  6-O ,  7-C ) :   0.9689 B(  7-C ,  8-C ) :   0.8911 B(  7-C , 19-H ) :   0.9141
B(  8-C , 20-H ) :   0.9418 B(  8-C , 21-H ) :   0.9280 B(  8-C , 22-H ) :   0.9335

MP2 TOTAL ENERGY:     -387.583939146 Eh
FINAL SINGLE POINT ENERGY      -387.583939145959

DIPOLE MOMENT
-------------
                                X             Y             Z
Electronic contribution:     -1.49327       0.10408       5.23214
Nuclear contribution   :      1.83287      -0.38423      -5.91388
                        -----------------------------------------
Total Dipole Moment    :      0.33960      -0.28016      -0.68174
                        -----------------------------------------
Magnitude (a.u.)       :      0.81153
Magnitude (Debye)      :      2.06276

                             ****ORCA TERMINATED NORMALLY****
TOTAL RUN TIME: 0 days 0 hours 20 minutes 43 seconds 83 msec
