                         Program Version 3.0.3 - RELEASE   -
|  1> ! RI-MP2 RIJK def2-TZVP def2-TZVP/C def2-TZVP/JK TIGHTSCF
|  2> % maxcore 2000
|  3> % mp2 density relaxed end
|  4> *xyz 0 1
|  5>  N       -0.3045596685    -1.1237927426    -0.6267744226
|  6>  C       -0.1893413390    -0.0098985316    -0.3386005039
|  7>  C       -0.0325182667     1.3780153881     0.0519130814
|  8>  C       -0.0267056297     1.6909003290     1.5881509401
|  9>  C        1.3687166886     2.3658317842     1.4517923986
| 10>  O        2.4587400796     1.6793908334     2.0278369639
| 11>  C        2.7717069083     0.6209434349     1.1476297515
| 12>  O        2.4869884999     1.0800162140    -0.1648125308
| 13>  C        1.4230330954     1.9858954183    -0.0594896946
| 14>  H       -0.7549553817     1.9879593820    -0.4965555703
| 15>  H       -0.8327224503     2.3517290776     1.9102174919
| 16>  H       -0.0161182667     0.8068906716     2.2272131258
| 17>  H        1.4309633589     3.4153482393     1.7396717541
| 18>  H        3.8379283423     0.3956126511     1.2218261825
| 19>  H        2.1725111305    -0.2750654931     1.3743949469
| 20>  H        1.5394173191     2.7580010538    -0.8204078745
| 21> *
| 22>
| 23>                          ****END OF INPUT****

CARTESIAN COORDINATES (ANGSTROEM)
---------------------------------
  N     -0.304560   -1.123793   -0.626774
  C     -0.189341   -0.009899   -0.338601
  C     -0.032518    1.378015    0.051913
  C     -0.026706    1.690900    1.588151
  C      1.368717    2.365832    1.451792
  O      2.458740    1.679391    2.027837
  C      2.771707    0.620943    1.147630
  O      2.486988    1.080016   -0.164813
  C      1.423033    1.985895   -0.059490
  H     -0.754955    1.987959   -0.496556
  H     -0.832722    2.351729    1.910217
  H     -0.016118    0.806891    2.227213
  H      1.430963    3.415348    1.739672
  H      3.837928    0.395613    1.221826
  H      2.172511   -0.275065    1.374395
  H      1.539417    2.758001   -0.820408

 Total Charge           Charge          ....    0
 Multiplicity           Mult            ....    1
 Number of Electrons    NEL             ....   66
 Basis Dimension        Dim             ....  321

ORBITAL ENERGIES
----------------

  NO   OCC          E(Eh)            E(eV)
   0   2.0000     -20.587825      -560.2232
   1   2.0000     -20.585675      -560.1647
   2   2.0000     -15.571467      -423.7211
   3   2.0000     -11.344195      -308.6912
   4   2.0000     -11.317616      -307.9680
   5   2.0000     -11.309503      -307.7472
   6   2.0000     -11.292203      -307.2765
   7   2.0000     -11.275133      -306.8120
   8   2.0000     -11.261780      -306.4486
   9   2.0000      -1.463889       -39.8344
  10   2.0000      -1.359663       -36.9983
  11   2.0000      -1.221674       -33.2434
  12   2.0000      -1.152572       -31.3631
  13   2.0000      -0.990522       -26.9535
  14   2.0000      -0.949257       -25.8306
  15   2.0000      -0.876042       -23.8383
  16   2.0000      -0.819298       -22.2942
  17   2.0000      -0.754933       -20.5428
  18   2.0000      -0.717919       -19.5356
  19   2.0000      -0.699825       -19.0432
  20   2.0000      -0.660871       -17.9832
  21   2.0000      -0.635158       -17.2835
  22   2.0000      -0.609444       -16.5838
  23   2.0000      -0.588455       -16.0127
  24   2.0000      -0.566929       -15.4269
  25   2.0000      -0.563046       -15.3212
  26   2.0000      -0.540928       -14.7194
  27   2.0000      -0.530994       -14.4491
  28   2.0000      -0.489882       -13.3304
  29   2.0000      -0.477852       -13.0030
  30   2.0000      -0.450860       -12.2685
  31   2.0000      -0.441486       -12.0135
  32   2.0000      -0.427514       -11.6333
  33   0.0000       0.118928         3.2362
  34   0.0000       0.142004         3.8641
  35   0.0000       0.151462         4.1215
  36   0.0000       0.165433         4.5017
  37   0.0000       0.180056         4.8996

MULLIKEN ATOMIC CHARGES
-----------------------
   0 N :   -0.048828
   1 C :   -0.205534
   2 C :   -0.037791
   3 C :   -0.246526
   4 C :    0.027961
   5 O :   -0.308297
   6 C :    0.076453
   7 O :   -0.304743
   8 C :    0.099087
   9 H :    0.146869
  10 H :    0.139691
  11 H :    0.150806
  12 H :    0.126878
  13 H :    0.137702
  14 H :    0.109810
  15 H :    0.136461
Sum of atomic charges:    0.0000000

LOEWDIN ATOMIC CHARGES
----------------------
   0 N :    0.065691
   1 C :   -0.179090
   2 C :   -0.199780
   3 C :   -0.177064
   4 C :   -0.271134
   5 O :    0.183833
   6 C :   -0.348569
   7 O :    0.196055
   8 C :   -0.242215
   9 H :    0.172599
  10 H :    0.137099
  11 H :    0.147217
  12 H :    0.139220
  13 H :    0.123860
  14 H :    0.112311
  15 H :    0.139967

  Mayer bond orders larger than 0.1
B(  0-N ,  1-C ) :   2.8512 B(  1-C ,  2-C ) :   0.9756 B(  2-C ,  3-C ) :   0.8963
B(  2-C ,  8-C ) :   0.8413 B(  2-C ,  9-H ) :   0.8920 B(  3-C ,  4-C ) :   0.9035
B(  3-C , 10-H ) :   0.9169 B(  3-C , 11-H ) :   0.9161 B(  4-C ,  5-O ) :   0.9615
B(  4-C ,  8-C ) :   0.9135 B(  4-C , 12-H ) :   0.9319 B(  5-O ,  6-C ) :   0.9586
B(  6-C ,  7-O ) :   0.9420 B(  6-C , 13-H ) :   0.9248 B(  6-C , 14-H ) :   0.9268
B(  7-O ,  8-C ) :   0.9822 B(  8-C , 15-H ) :   0.9331

MP2 TOTAL ENERGY:     -437.163276346 Eh
FINAL SINGLE POINT ENERGY      -437.163276345566

DIPOLE MOMENT
-------------
                                X             Y             Z
Electronic contribution:      0.53164      -2.08738      -2.30842
Nuclear contribution   :     -0.71833       3.57028       2.81338
                        -----------------------------------------
Total Dipole Moment    :     -0.18669       1.48290       0.50495
                        -----------------------------------------
Magnitude (a.u.)       :      1.57760
Magnitude (Debye)      :      4.00994

                             ****ORCA TERMINATED NORMALLY****
TOTAL RUN TIME: 0 days 0 hours 15 minutes 52 seconds 798 msec
