                         Program Version 3.0.3 - RELEASE   -
|  1> ! RI-MP2 RIJK def2-TZVP def2-TZVP/C def2-TZVP/JK TIGHTSCF
|  2> % maxcore 2000
|  3> % mp2 density relaxed end
|  4> *xyz 0 1
|  5>  O       -0.2943854912     0.4142749924    -0.7638533066
|  6>  C        0.0306618475     1.1366922339     0.1441885945
|  7>  C        1.3131753269     1.8934428980     0.1736606469
|  8>  C        1.7653916341     2.9187147491     1.2092533148
|  9>  C        2.2516753843     3.7818956281     0.0183194018
| 10>  N        1.7237772265     2.7962180687    -1.0030075534
| 11>  C        2.4088612065     1.5150371879    -0.7705431167
| 12>  C        3.7800481277     1.4369063901    -0.3329105244
| 13>  N        4.8813715296     1.3831264035     0.0160172822
| 14>  H       -0.6210391351     1.2925712665     1.0309168995
| 15>  H        0.9250932776     3.3676565063     1.7425016566
| 16>  H        2.5104944658     2.5805918728     1.9324728346
| 17>  H        1.7185303546     4.7251077952    -0.0979766997
| 18>  H        3.3270083843     3.9548728692    -0.0634730584
| 19>  H        2.1187584009     0.7709381585    -1.5066838918
| 20> *
| 21>
| 22>                          ****END OF INPUT****

CARTESIAN COORDINATES (ANGSTROEM)
---------------------------------
  O     -0.294385    0.414275   -0.763853
  C      0.030662    1.136692    0.144189
  C      1.313175    1.893443    0.173661
  C      1.765392    2.918715    1.209253
  C      2.251675    3.781896    0.018319
  N      1.723777    2.796218   -1.003008
  C      2.408861    1.515037   -0.770543
  C      3.780048    1.436906   -0.332911
  N      4.881372    1.383126    0.016017
  H     -0.621039    1.292571    1.030917
  H      0.925093    3.367657    1.742502
  H      2.510494    2.580592    1.932473
  H      1.718530    4.725108   -0.097977
  H      3.327008    3.954873   -0.063473
  H      2.118758    0.770938   -1.506684

 Total Charge           Charge          ....    0
 Multiplicity           Mult            ....    1
 Number of Electrons    NEL             ....   64
 Basis Dimension        Dim             ....  315

ORBITAL ENERGIES
----------------

  NO   OCC          E(Eh)            E(eV)
   0   2.0000     -20.582958      -560.0908
   1   2.0000     -15.617620      -424.9771
   2   2.0000     -15.591861      -424.2761
   3   2.0000     -11.360329      -309.1303
   4   2.0000     -11.330978      -308.3316
   5   2.0000     -11.316289      -307.9319
   6   2.0000     -11.292767      -307.2918
   7   2.0000     -11.290472      -307.2294
   8   2.0000     -11.270843      -306.6952
   9   2.0000      -1.422594       -38.7108
  10   2.0000      -1.339807       -36.4580
  11   2.0000      -1.234488       -33.5921
  12   2.0000      -1.060127       -28.8475
  13   2.0000      -1.011111       -27.5137
  14   2.0000      -0.950501       -25.8645
  15   2.0000      -0.866267       -23.5723
  16   2.0000      -0.776263       -21.1232
  17   2.0000      -0.749888       -20.4055
  18   2.0000      -0.707970       -19.2648
  19   2.0000      -0.676103       -18.3977
  20   2.0000      -0.665260       -18.1027
  21   2.0000      -0.610842       -16.6219
  22   2.0000      -0.595058       -16.1923
  23   2.0000      -0.581642       -15.8273
  24   2.0000      -0.565922       -15.3995
  25   2.0000      -0.544363       -14.8129
  26   2.0000      -0.520607       -14.1664
  27   2.0000      -0.495119       -13.4729
  28   2.0000      -0.485939       -13.2231
  29   2.0000      -0.472647       -12.8614
  30   2.0000      -0.442659       -12.0454
  31   2.0000      -0.405118       -11.0238
  32   0.0000       0.077365         2.1052
  33   0.0000       0.128605         3.4995
  34   0.0000       0.140451         3.8219
  35   0.0000       0.149952         4.0804
  36   0.0000       0.164803         4.4845

MULLIKEN ATOMIC CHARGES
-----------------------
   0 O :   -0.254066
   1 C :    0.065583
   2 C :    0.142123
   3 C :   -0.228693
   4 C :   -0.163778
   5 N :   -0.205614
   6 C :    0.007019
   7 C :   -0.174269
   8 N :   -0.044473
   9 H :    0.095711
  10 H :    0.138521
  11 H :    0.152166
  12 H :    0.142484
  13 H :    0.148558
  14 H :    0.178727
Sum of atomic charges:   -0.0000000

LOEWDIN ATOMIC CHARGES
----------------------
   0 O :    0.157903
   1 C :   -0.257908
   2 C :   -0.208334
   3 C :   -0.200157
   4 C :   -0.221584
   5 N :    0.175295
   6 C :   -0.209945
   7 C :   -0.170347
   8 N :    0.080931
   9 H :    0.120877
  10 H :    0.144065
  11 H :    0.140951
  12 H :    0.133464
  13 H :    0.133218
  14 H :    0.181572

  Mayer bond orders larger than 0.1
B(  0-O ,  1-C ) :   1.9885 B(  1-C ,  2-C ) :   0.8437 B(  1-C ,  9-H ) :   0.9501
B(  2-C ,  3-C ) :   0.9029 B(  2-C ,  5-N ) :   0.7712 B(  2-C ,  6-C ) :   0.8680
B(  3-C ,  4-C ) :   0.9688 B(  3-C , 10-H ) :   0.9254 B(  3-C , 11-H ) :   0.9058
B(  4-C ,  5-N ) :   0.8976 B(  4-C , 12-H ) :   0.9185 B(  4-C , 13-H ) :   0.9289
B(  5-N ,  6-C ) :   0.9660 B(  6-C ,  7-C ) :   0.9398 B(  6-C , 14-H ) :   0.9004
B(  7-C ,  8-N ) :   2.8093

MP2 TOTAL ENERGY:     -416.066533357 Eh
FINAL SINGLE POINT ENERGY      -416.066533357315

DIPOLE MOMENT
-------------
                                X             Y             Z
Electronic contribution:      0.86374      -4.05436      -2.74839
Nuclear contribution   :     -1.56101       4.83895       3.65163
                        -----------------------------------------
Total Dipole Moment    :     -0.69727       0.78459       0.90325
                        -----------------------------------------
Magnitude (a.u.)       :      1.38478
Magnitude (Debye)      :      3.51983

                             ****ORCA TERMINATED NORMALLY****
TOTAL RUN TIME: 0 days 0 hours 15 minutes 36 seconds 959 msec
