                         Program Version 3.0.3 - RELEASE   -
|  1> ! RI-MP2 RIJK def2-TZVP def2-TZVP/C def2-TZVP/JK TIGHTSCF
|  2> % maxcore 2000
|  3> % mp2 density relaxed end
|  4> *xyz 0 1
|  5>  C       -0.0947010574     1.6317672873    -0.0055072318
|  6>  C        0.0246344754     0.1101551289    -0.0976289915
|  7>  O        0.9943288988    -0.4027092392     0.8030190924
|  8>  C       -1.3200509004    -0.5788091220     0.1161903497
|  9>  C       -1.3234899794    -2.1069770839     0.2945188772
| 10>  C       -1.7836683897    -1.7824954469     1.7132750192
| 11>  O       -2.0833013618    -2.3592535343     2.7062666856
| 12>  O       -1.7632235310    -0.4175436865     1.5150861869
| 13>  H        0.8898422129     2.0900743003    -0.1252698469
| 14>  H       -0.7594023233     2.0248378140    -0.7816123825
| 15>  H       -0.5025414368     1.9253234224     0.9677866764
| 16>  H        0.3815148264    -0.1710936391    -1.0967511521
| 17>  H        0.7224864535    -0.1422832561     1.6914811937
| 18>  H       -2.0862414289    -0.1860519951    -0.5577903227
| 19>  H       -2.0459771233    -2.6700184574    -0.2974894727
| 20>  H       -0.3409486649    -2.5779617623     0.2538889090
| 21> *
| 22>
| 23>                          ****END OF INPUT****

CARTESIAN COORDINATES (ANGSTROEM)
---------------------------------
  C     -0.094701    1.631767   -0.005507
  C      0.024634    0.110155   -0.097629
  O      0.994329   -0.402709    0.803019
  C     -1.320051   -0.578809    0.116190
  C     -1.323490   -2.106977    0.294519
  C     -1.783668   -1.782495    1.713275
  O     -2.083301   -2.359254    2.706267
  O     -1.763224   -0.417544    1.515086
  H      0.889842    2.090074   -0.125270
  H     -0.759402    2.024838   -0.781612
  H     -0.502541    1.925323    0.967787
  H      0.381515   -0.171094   -1.096751
  H      0.722486   -0.142283    1.691481
  H     -2.086241   -0.186052   -0.557790
  H     -2.045977   -2.670018   -0.297489
  H     -0.340949   -2.577962    0.253889

 Total Charge           Charge          ....    0
 Multiplicity           Mult            ....    1
 Number of Electrons    NEL             ....   62
 Basis Dimension        Dim             ....  296

ORBITAL ENERGIES
----------------

  NO   OCC          E(Eh)            E(eV)
   0   2.0000     -20.605823      -560.7130
   1   2.0000     -20.572085      -559.7949
   2   2.0000     -20.556741      -559.3774
   3   2.0000     -11.388509      -309.8971
   4   2.0000     -11.317096      -307.9538
   5   2.0000     -11.304390      -307.6081
   6   2.0000     -11.263998      -306.5090
   7   2.0000     -11.233265      -305.6727
   8   2.0000      -1.468011       -39.9466
   9   2.0000      -1.390081       -37.8260
  10   2.0000      -1.373867       -37.3848
  11   2.0000      -1.073995       -29.2249
  12   2.0000      -1.033068       -28.1112
  13   2.0000      -0.926610       -25.2143
  14   2.0000      -0.838161       -22.8075
  15   2.0000      -0.757470       -20.6118
  16   2.0000      -0.725863       -19.7517
  17   2.0000      -0.707662       -19.2565
  18   2.0000      -0.686484       -18.6802
  19   2.0000      -0.656394       -17.8614
  20   2.0000      -0.638814       -17.3830
  21   2.0000      -0.600615       -16.3436
  22   2.0000      -0.577965       -15.7272
  23   2.0000      -0.569816       -15.5055
  24   2.0000      -0.555381       -15.1127
  25   2.0000      -0.543368       -14.7858
  26   2.0000      -0.520202       -14.1554
  27   2.0000      -0.503706       -13.7065
  28   2.0000      -0.476014       -12.9530
  29   2.0000      -0.453297       -12.3348
  30   2.0000      -0.446327       -12.1452
  31   0.0000       0.125365         3.4114
  32   0.0000       0.149189         4.0596
  33   0.0000       0.152316         4.1447
  34   0.0000       0.155999         4.2449
  35   0.0000       0.179854         4.8941

MULLIKEN ATOMIC CHARGES
-----------------------
   0 C :   -0.408178
   1 C :    0.095382
   2 O :   -0.474361
   3 C :    0.027258
   4 C :   -0.228635
   5 C :    0.228846
   6 O :   -0.255136
   7 O :   -0.269121
   8 H :    0.151934
   9 H :    0.126224
  10 H :    0.144245
  11 H :    0.106384
  12 H :    0.327599
  13 H :    0.117596
  14 H :    0.152267
  15 H :    0.157696
Sum of atomic charges:    0.0000000

LOEWDIN ATOMIC CHARGES
----------------------
   0 C :   -0.296929
   1 C :   -0.365962
   2 O :   -0.007318
   3 C :   -0.236764
   4 C :   -0.193051
   5 C :   -0.459193
   6 O :    0.158644
   7 O :    0.233489
   8 H :    0.129274
   9 H :    0.127706
  10 H :    0.128997
  11 H :    0.152122
  12 H :    0.181742
  13 H :    0.144190
  14 H :    0.146778
  15 H :    0.156276

  Mayer bond orders larger than 0.1
B(  0-C ,  1-C ) :   0.9460 B(  0-C ,  8-H ) :   0.9379 B(  0-C ,  9-H ) :   0.9286
B(  0-C , 10-H ) :   0.9226 B(  1-C ,  2-O ) :   0.8934 B(  1-C ,  3-C ) :   0.9284
B(  1-C , 11-H ) :   0.9138 B(  2-O , 12-H ) :   0.8325 B(  3-C ,  4-C ) :   0.9102
B(  3-C ,  7-O ) :   0.8814 B(  3-C , 13-H ) :   0.9123 B(  4-C ,  5-C ) :   0.9388
B(  4-C , 14-H ) :   0.9085 B(  4-C , 15-H ) :   0.8901 B(  5-C ,  6-O ) :   2.0615
B(  5-C ,  7-O ) :   1.0585

MP2 TOTAL ENERGY:     -420.247026883 Eh
FINAL SINGLE POINT ENERGY      -420.247026882995

DIPOLE MOMENT
-------------
                                X             Y             Z
Electronic contribution:     -3.09782      -5.11291       5.30895
Nuclear contribution   :      3.17216       5.64511      -6.68310
                        -----------------------------------------
Total Dipole Moment    :      0.07435       0.53220      -1.37415
                        -----------------------------------------
Magnitude (a.u.)       :      1.47548
Magnitude (Debye)      :      3.75038

                             ****ORCA TERMINATED NORMALLY****
TOTAL RUN TIME: 0 days 0 hours 11 minutes 36 seconds 790 msec
