                         Program Version 3.0.3 - RELEASE   -
|  1> ! RI-MP2 RIJK def2-TZVP def2-TZVP/C def2-TZVP/JK TIGHTSCF
|  2> % maxcore 2000
|  3> % mp2 density relaxed end
|  4> *xyz 0 1
|  5>  O        0.2213094380     1.1746015794    -0.7477672625
|  6>  C       -0.0297274741     0.4022566697     0.4177612817
|  7>  C       -1.2677269767    -0.3474152833     0.2519118500
|  8>  C       -2.2849488293    -0.9799858603     0.1330542469
|  9>  C       -3.5190334088    -1.7156729294    -0.0188243502
| 10>  C       -4.3810338327    -1.4351831451    -1.2807061404
| 11>  C       -4.1119207556    -2.8897276584    -1.5965160511
| 12>  N       -4.4562699886    -3.6713087555    -2.5120189614
| 13>  O       -3.3246493014    -3.1047211625    -0.4816071152
| 14>  H        1.0538248731     1.6386212255    -0.6120336342
| 15>  H        0.7876351543    -0.3106714135     0.6139885929
| 16>  H       -0.1168910244     1.0400732310     1.3125696795
| 17>  H       -4.0886495959    -1.7312263221     0.9150179591
| 18>  H       -5.4251941949    -1.1823195197    -1.0942715106
| 19>  H       -3.9439701947    -0.7274326382    -1.9851301776
| 20>  H       -4.0642906382    -4.6042598176    -2.3736116468
| 21> *
| 22>
| 23>                          ****END OF INPUT****

CARTESIAN COORDINATES (ANGSTROEM)
---------------------------------
  O      0.221309    1.174602   -0.747767
  C     -0.029727    0.402257    0.417761
  C     -1.267727   -0.347415    0.251912
  C     -2.284949   -0.979986    0.133054
  C     -3.519033   -1.715673   -0.018824
  C     -4.381034   -1.435183   -1.280706
  C     -4.111921   -2.889728   -1.596516
  N     -4.456270   -3.671309   -2.512019
  O     -3.324649   -3.104721   -0.481607
  H      1.053825    1.638621   -0.612034
  H      0.787635   -0.310671    0.613989
  H     -0.116891    1.040073    1.312570
  H     -4.088650   -1.731226    0.915018
  H     -5.425194   -1.182320   -1.094272
  H     -3.943970   -0.727433   -1.985130
  H     -4.064291   -4.604260   -2.373612

 Total Charge           Charge          ....    0
 Multiplicity           Mult            ....    1
 Number of Electrons    NEL             ....   66
 Basis Dimension        Dim             ....  321

ORBITAL ENERGIES
----------------

  NO   OCC          E(Eh)            E(eV)
   0   2.0000     -20.596360      -560.4554
   1   2.0000     -20.577424      -559.9402
   2   2.0000     -15.537477      -422.7963
   3   2.0000     -11.342468      -308.6442
   4   2.0000     -11.334089      -308.4162
   5   2.0000     -11.319921      -308.0307
   6   2.0000     -11.259565      -306.3883
   7   2.0000     -11.247350      -306.0559
   8   2.0000     -11.240466      -305.8686
   9   2.0000      -1.436674       -39.0939
  10   2.0000      -1.382015       -37.6065
  11   2.0000      -1.198704       -32.6184
  12   2.0000      -1.085625       -29.5414
  13   2.0000      -1.041066       -28.3288
  14   2.0000      -0.974186       -26.5089
  15   2.0000      -0.905672       -24.6446
  16   2.0000      -0.753752       -20.5106
  17   2.0000      -0.730794       -19.8859
  18   2.0000      -0.722232       -19.6529
  19   2.0000      -0.705857       -19.2074
  20   2.0000      -0.684387       -18.6231
  21   2.0000      -0.658201       -17.9106
  22   2.0000      -0.656712       -17.8700
  23   2.0000      -0.579796       -15.7771
  24   2.0000      -0.553872       -15.0716
  25   2.0000      -0.548917       -14.9368
  26   2.0000      -0.543176       -14.7806
  27   2.0000      -0.516374       -14.0513
  28   2.0000      -0.483452       -13.1554
  29   2.0000      -0.441797       -12.0219
  30   2.0000      -0.408463       -11.1148
  31   2.0000      -0.397114       -10.8060
  32   2.0000      -0.392603       -10.6833
  33   0.0000       0.114668         3.1203
  34   0.0000       0.134866         3.6699
  35   0.0000       0.150092         4.0842
  36   0.0000       0.165418         4.5013
  37   0.0000       0.169148         4.6028

MULLIKEN ATOMIC CHARGES
-----------------------
   0 O :   -0.443152
   1 C :   -0.194419
   2 C :    0.075992
   3 C :    0.015065
   4 C :    0.002715
   5 C :   -0.212953
   6 C :    0.135755
   7 N :   -0.363281
   8 O :   -0.264095
   9 H :    0.319408
  10 H :    0.134993
  11 H :    0.131271
  12 H :    0.133681
  13 H :    0.142556
  14 H :    0.155832
  15 H :    0.230633
Sum of atomic charges:   -0.0000000

LOEWDIN ATOMIC CHARGES
----------------------
   0 O :   -0.038008
   1 C :   -0.334970
   2 C :   -0.044900
   3 C :   -0.047041
   4 C :   -0.231215
   5 C :   -0.160224
   6 C :   -0.401230
   7 N :   -0.054161
   8 O :    0.230921
   9 H :    0.176412
  10 H :    0.137812
  11 H :    0.136047
  12 H :    0.156034
  13 H :    0.146412
  14 H :    0.153807
  15 H :    0.174304

  Mayer bond orders larger than 0.1
B(  0-O ,  1-C ) :   1.1254 B(  0-O ,  9-H ) :   0.8452 B(  1-C ,  2-C ) :   0.9231
B(  1-C , 10-H ) :   0.9480 B(  1-C , 11-H ) :   0.9513 B(  2-C ,  3-C ) :   2.6672
B(  3-C ,  4-C ) :   1.0732 B(  4-C ,  5-C ) :   0.9335 B(  4-C ,  8-O ) :   0.9240
B(  4-C , 12-H ) :   0.9235 B(  5-C ,  6-C ) :   0.9357 B(  5-C , 13-H ) :   0.9118
B(  5-C , 14-H ) :   0.9092 B(  6-C ,  7-N ) :   2.0715 B(  6-C ,  8-O ) :   1.0547
B(  7-N , 15-H ) :   0.8452

MP2 TOTAL ENERGY:     -437.108396739 Eh
FINAL SINGLE POINT ENERGY      -437.108396739174

DIPOLE MOMENT
-------------
                                X             Y             Z
Electronic contribution:     -1.00840      -2.64568      -0.17613
Nuclear contribution   :      1.74534       3.50733       1.33631
                        -----------------------------------------
Total Dipole Moment    :      0.73695       0.86165       1.16018
                        -----------------------------------------
Magnitude (a.u.)       :      1.62221
Magnitude (Debye)      :      4.12332

                             ****ORCA TERMINATED NORMALLY****
TOTAL RUN TIME: 0 days 0 hours 14 minutes 12 seconds 576 msec
