                         Program Version 3.0.3 - RELEASE   -
|  1> ! RI-MP2 RIJK def2-TZVP def2-TZVP/C def2-TZVP/JK TIGHTSCF
|  2> % maxcore 2000
|  3> % mp2 density relaxed end
|  4> *xyz 0 1
|  5>  C        0.0051523593     1.4846186913    -0.0123807999
|  6>  N       -0.0326382692     0.0446492360     0.1251598783
|  7>  C       -1.2916252443    -0.6247755578     0.5080562480
|  8>  C       -0.4602973785    -1.6641755012     1.3035821686
|  9>  O       -0.1850670826    -2.8683835567     0.6559064972
| 10>  C        0.6785255893    -0.5788753123     1.2564611596
| 11>  C        2.0431215161    -1.0170405155     0.9790405016
| 12>  N        3.1172273121    -1.3758622096     0.7485424619
| 13>  H        1.0297367041     1.8089503736    -0.2186168106
| 14>  H       -0.6209101843     1.7870657379    -0.8573681389
| 15>  H       -0.3535152153     2.0124236025     0.8906609458
| 16>  H       -1.9334617223    -0.0151861928     1.1650648644
| 17>  H       -1.8869912539    -1.0057619661    -0.3276759511
| 18>  H       -0.8147359955    -1.9183384296     2.3020640012
| 19>  H        0.1643950633    -2.6736291901    -0.2221857394
| 20>  H        0.6746866816     0.0339059805     2.1735795535
| 21> *
| 22>
| 23>                          ****END OF INPUT****

CARTESIAN COORDINATES (ANGSTROEM)
---------------------------------
  C      0.005152    1.484619   -0.012381
  N     -0.032638    0.044649    0.125160
  C     -1.291625   -0.624776    0.508056
  C     -0.460297   -1.664176    1.303582
  O     -0.185067   -2.868384    0.655906
  C      0.678526   -0.578875    1.256461
  C      2.043122   -1.017041    0.979041
  N      3.117227   -1.375862    0.748542
  H      1.029737    1.808950   -0.218617
  H     -0.620910    1.787066   -0.857368
  H     -0.353515    2.012424    0.890661
  H     -1.933462   -0.015186    1.165065
  H     -1.886991   -1.005762   -0.327676
  H     -0.814736   -1.918338    2.302064
  H      0.164395   -2.673629   -0.222186
  H      0.674687    0.033906    2.173580

 Total Charge           Charge          ....    0
 Multiplicity           Mult            ....    1
 Number of Electrons    NEL             ....   60
 Basis Dimension        Dim             ....  296

ORBITAL ENERGIES
----------------

  NO   OCC          E(Eh)            E(eV)
   0   2.0000     -20.579451      -559.9953
   1   2.0000     -15.582689      -424.0265
   2   2.0000     -15.574785      -423.8114
   3   2.0000     -11.317881      -307.9752
   4   2.0000     -11.315447      -307.9090
   5   2.0000     -11.277774      -306.8838
   6   2.0000     -11.273705      -306.7731
   7   2.0000     -11.266130      -306.5670
   8   2.0000      -1.395423       -37.9714
   9   2.0000      -1.281712       -34.8771
  10   2.0000      -1.217660       -33.1342
  11   2.0000      -1.047546       -28.5052
  12   2.0000      -0.988431       -26.8966
  13   2.0000      -0.902284       -24.5524
  14   2.0000      -0.821028       -22.3413
  15   2.0000      -0.743955       -20.2440
  16   2.0000      -0.723610       -19.6904
  17   2.0000      -0.654932       -17.8216
  18   2.0000      -0.639667       -17.4062
  19   2.0000      -0.623813       -16.9748
  20   2.0000      -0.600841       -16.3497
  21   2.0000      -0.595090       -16.1932
  22   2.0000      -0.563183       -15.3250
  23   2.0000      -0.560137       -15.2421
  24   2.0000      -0.527527       -14.3548
  25   2.0000      -0.504577       -13.7302
  26   2.0000      -0.473270       -12.8783
  27   2.0000      -0.462076       -12.5737
  28   2.0000      -0.436878       -11.8881
  29   2.0000      -0.396360       -10.7855
  30   0.0000       0.120799         3.2871
  31   0.0000       0.136696         3.7197
  32   0.0000       0.153118         4.1666
  33   0.0000       0.162832         4.4309
  34   0.0000       0.167779         4.5655

MULLIKEN ATOMIC CHARGES
-----------------------
   0 C :   -0.346240
   1 N :   -0.156664
   2 C :   -0.181829
   3 C :    0.098793
   4 O :   -0.443460
   5 C :    0.021619
   6 C :   -0.191450
   7 N :   -0.038987
   8 H :    0.153317
   9 H :    0.146171
  10 H :    0.113223
  11 H :    0.107718
  12 H :    0.132581
  13 H :    0.130748
  14 H :    0.332842
  15 H :    0.121618
Sum of atomic charges:   -0.0000000

LOEWDIN ATOMIC CHARGES
----------------------
   0 C :   -0.329246
   1 N :    0.091282
   2 C :   -0.238756
   3 C :   -0.292199
   4 O :    0.016580
   5 C :   -0.241695
   6 C :   -0.171812
   7 N :    0.073112
   8 H :    0.125176
   9 H :    0.123217
  10 H :    0.104741
  11 H :    0.125422
  12 H :    0.126950
  13 H :    0.138756
  14 H :    0.188763
  15 H :    0.159710

  Mayer bond orders larger than 0.1
B(  0-C ,  1-N ) :   0.9223 B(  0-C ,  8-H ) :   0.9309 B(  0-C ,  9-H ) :   0.9335
B(  0-C , 10-H ) :   0.9306 B(  1-N ,  2-C ) :   0.9172 B(  1-N ,  5-C ) :   0.9374
B(  2-C ,  3-C ) :   0.9337 B(  2-C , 11-H ) :   0.9183 B(  2-C , 12-H ) :   0.9166
B(  3-C ,  4-O ) :   0.9983 B(  3-C ,  5-C ) :   0.8755 B(  3-C , 13-H ) :   0.9280
B(  4-O , 14-H ) :   0.8271 B(  5-C ,  6-C ) :   0.9573 B(  5-C , 15-H ) :   0.8925
B(  6-C ,  7-N ) :   2.8654

MP2 TOTAL ENERGY:     -379.268563441 Eh
FINAL SINGLE POINT ENERGY      -379.268563440886

DIPOLE MOMENT
-------------
                                X             Y             Z
Electronic contribution:      5.24122      -5.15681       0.67067
Nuclear contribution   :     -6.73146       6.24675      -0.49697
                        -----------------------------------------
Total Dipole Moment    :     -1.49024       1.08994       0.17371
                        -----------------------------------------
Magnitude (a.u.)       :      1.85444
Magnitude (Debye)      :      4.71361

                             ****ORCA TERMINATED NORMALLY****
TOTAL RUN TIME: 0 days 0 hours 12 minutes 3 seconds 338 msec
