                         Program Version 3.0.3 - RELEASE   -
|  1> ! RI-MP2 RIJK def2-TZVP def2-TZVP/C def2-TZVP/JK TIGHTSCF
|  2> % maxcore 2000
|  3> % mp2 density relaxed end
|  4> *xyz 0 1
|  5>  N        0.2381567106     1.0137796367     0.4757152221
|  6>  C        0.0704611402    -0.1589404567     0.0774747369
|  7>  O        0.9692702488    -1.0492934244    -0.5131807739
|  8>  C       -0.0878387509    -2.0264211212    -0.7497662643
|  9>  C       -0.2263420196    -3.1194512181     0.3498049011
| 10>  C        0.6961677055    -2.9682239585     1.5695850077
| 11>  O       -0.2094863568    -2.0105828001     2.1834632537
| 12>  C       -1.1734441204    -2.1735602132     1.1329187658
| 13>  C       -1.1012971589    -1.1061539574    -0.0200613809
| 14>  H        1.2050581502     1.3190652403     0.3538024857
| 15>  H       -0.1364183469    -2.3170502839    -1.7985939178
| 16>  H       -0.4971891020    -4.1169549885     0.0079249715
| 17>  H        0.7804934817    -3.8745012789     2.1799730534
| 18>  H        1.6865592906    -2.5424728970     1.3875331370
| 19>  H       -2.1707666084    -2.4289493773     1.4984919908
| 20>  H       -2.0378194338    -0.7407048918    -0.4355919088
| 21> *
| 22>
| 23>                          ****END OF INPUT****

CARTESIAN COORDINATES (ANGSTROEM)
---------------------------------
  N      0.238157    1.013780    0.475715
  C      0.070461   -0.158940    0.077475
  O      0.969270   -1.049293   -0.513181
  C     -0.087839   -2.026421   -0.749766
  C     -0.226342   -3.119451    0.349805
  C      0.696168   -2.968224    1.569585
  O     -0.209486   -2.010583    2.183463
  C     -1.173444   -2.173560    1.132919
  C     -1.101297   -1.106154   -0.020061
  H      1.205058    1.319065    0.353802
  H     -0.136418   -2.317050   -1.798594
  H     -0.497189   -4.116955    0.007925
  H      0.780493   -3.874501    2.179973
  H      1.686559   -2.542473    1.387533
  H     -2.170767   -2.428949    1.498492
  H     -2.037819   -0.740705   -0.435592

 Total Charge           Charge          ....    0
 Multiplicity           Mult            ....    1
 Number of Electrons    NEL             ....   66
 Basis Dimension        Dim             ....  321

ORBITAL ENERGIES
----------------

  NO   OCC          E(Eh)            E(eV)
   0   2.0000     -20.593752      -560.3845
   1   2.0000     -20.561922      -559.5183
   2   2.0000     -15.537458      -422.7957
   3   2.0000     -11.341609      -308.6209
   4   2.0000     -11.313114      -307.8455
   5   2.0000     -11.307870      -307.7028
   6   2.0000     -11.291359      -307.2535
   7   2.0000     -11.258127      -306.3492
   8   2.0000     -11.254363      -306.2468
   9   2.0000      -1.438582       -39.1458
  10   2.0000      -1.390871       -37.8475
  11   2.0000      -1.198581       -32.6150
  12   2.0000      -1.118477       -30.4353
  13   2.0000      -1.002564       -27.2812
  14   2.0000      -0.911319       -24.7983
  15   2.0000      -0.887808       -24.1585
  16   2.0000      -0.784436       -21.3456
  17   2.0000      -0.740170       -20.1411
  18   2.0000      -0.709802       -19.3147
  19   2.0000      -0.701006       -19.0754
  20   2.0000      -0.679349       -18.4860
  21   2.0000      -0.659915       -17.9572
  22   2.0000      -0.624629       -16.9970
  23   2.0000      -0.587940       -15.9987
  24   2.0000      -0.574111       -15.6224
  25   2.0000      -0.552209       -15.0264
  26   2.0000      -0.516506       -14.0549
  27   2.0000      -0.489103       -13.3092
  28   2.0000      -0.470386       -12.7998
  29   2.0000      -0.444693       -12.1007
  30   2.0000      -0.430611       -11.7175
  31   2.0000      -0.422694       -11.5021
  32   2.0000      -0.397992       -10.8299
  33   0.0000       0.137716         3.7474
  34   0.0000       0.142145         3.8680
  35   0.0000       0.161905         4.4057
  36   0.0000       0.165321         4.4986
  37   0.0000       0.181333         4.9343

MULLIKEN ATOMIC CHARGES
-----------------------
   0 N :   -0.357132
   1 C :    0.125280
   2 O :   -0.290214
   3 C :    0.125239
   4 C :   -0.216517
   5 C :   -0.046067
   6 O :   -0.330552
   7 C :    0.129506
   8 C :   -0.141619
   9 H :    0.230685
  10 H :    0.135589
  11 H :    0.133595
  12 H :    0.111701
  13 H :    0.123107
  14 H :    0.123004
  15 H :    0.144398
Sum of atomic charges:    0.0000000

LOEWDIN ATOMIC CHARGES
----------------------
   0 N :   -0.037626
   1 C :   -0.370035
   2 O :    0.224401
   3 C :   -0.187565
   4 C :   -0.177862
   5 C :   -0.239241
   6 O :    0.148796
   7 C :   -0.208609
   8 C :   -0.127852
   9 H :    0.175245
  10 H :    0.132115
  11 H :    0.141424
  12 H :    0.121658
  13 H :    0.125078
  14 H :    0.130097
  15 H :    0.149976

  Mayer bond orders larger than 0.1
B(  0-N ,  1-C ) :   2.0696 B(  0-N ,  9-H ) :   0.8422 B(  1-C ,  2-O ) :   1.0089
B(  1-C ,  8-C ) :   0.8893 B(  2-O ,  3-C ) :   0.8937 B(  3-C ,  4-C ) :   0.9207
B(  3-C ,  8-C ) :   0.9433 B(  3-C , 10-H ) :   0.9167 B(  4-C ,  5-C ) :   0.9834
B(  4-C ,  7-C ) :   0.9368 B(  4-C , 11-H ) :   0.9091 B(  5-C ,  6-O ) :   0.9169
B(  5-C , 12-H ) :   0.9115 B(  5-C , 13-H ) :   0.9077 B(  6-O ,  7-C ) :   0.9596
B(  7-C ,  8-C ) :   0.8626 B(  7-C , 14-H ) :   0.9215 B(  8-C , 15-H ) :   0.9080

MP2 TOTAL ENERGY:     -437.102557648 Eh
FINAL SINGLE POINT ENERGY      -437.102557647691

DIPOLE MOMENT
-------------
                                X             Y             Z
Electronic contribution:      0.44353       2.58411      -0.36259
Nuclear contribution   :     -0.68548      -3.89489      -0.40370
                        -----------------------------------------
Total Dipole Moment    :     -0.24195      -1.31078      -0.76628
                        -----------------------------------------
Magnitude (a.u.)       :      1.53749
Magnitude (Debye)      :      3.90798

                             ****ORCA TERMINATED NORMALLY****
TOTAL RUN TIME: 0 days 0 hours 16 minutes 53 seconds 521 msec
