                         Program Version 3.0.3 - RELEASE   -
|  1> ! RI-MP2 RIJK def2-TZVP def2-TZVP/C def2-TZVP/JK TIGHTSCF
|  2> % maxcore 2000
|  3> % mp2 density relaxed end
|  4> *xyz 0 1
|  5>  C       -0.1021575484     1.5888654874    -0.0379572180
|  6>  C        0.0146499002     0.0638720592     0.0204696659
|  7>  C        0.8036974145    -0.5515001362    -1.1862182612
|  8>  C        1.4883703051    -1.8580910362    -0.6811830311
|  9>  C        1.6194503382    -1.5722412363     0.7866955573
| 10>  N        2.3125345339    -2.0853608748     1.7650828195
| 11>  O        1.9369771096    -1.3227288847     2.8837457396
| 12>  C        1.0328845805    -0.3881587314     2.5108956766
| 13>  C        0.7874767360    -0.4923907403     1.1840744634
| 14>  H        0.8881286192     2.0557827060    -0.0226249652
| 15>  H       -0.6138654875     1.9053706390    -0.9526891147
| 16>  H       -0.6713391618     1.9769743841     0.8127585133
| 17>  H       -1.0000619459    -0.3593786806     0.0295686465
| 18>  H        0.1630278142    -0.7205051452    -2.0555489640
| 19>  H        1.5794053532     0.1617629986    -1.4878152770
| 20>  H        0.8456077519    -2.7322159258    -0.8405752291
| 21>  H        2.4400422306    -2.0614254186    -1.1776821896
| 22>  H        0.6874249466     0.2553799157     3.3050439177
| 23> *
| 24>
| 25>                          ****END OF INPUT****

CARTESIAN COORDINATES (ANGSTROEM)
---------------------------------
  C     -0.102158    1.588865   -0.037957
  C      0.014650    0.063872    0.020470
  C      0.803697   -0.551500   -1.186218
  C      1.488370   -1.858091   -0.681183
  C      1.619450   -1.572241    0.786696
  N      2.312535   -2.085361    1.765083
  O      1.936977   -1.322729    2.883746
  C      1.032885   -0.388159    2.510896
  C      0.787477   -0.492391    1.184074
  H      0.888129    2.055783   -0.022625
  H     -0.613865    1.905371   -0.952689
  H     -0.671339    1.976974    0.812759
  H     -1.000062   -0.359379    0.029569
  H      0.163028   -0.720505   -2.055549
  H      1.579405    0.161763   -1.487815
  H      0.845608   -2.732216   -0.840575
  H      2.440042   -2.061425   -1.177682
  H      0.687425    0.255380    3.305044

 Total Charge           Charge          ....    0
 Multiplicity           Mult            ....    1
 Number of Electrons    NEL             ....   66
 Basis Dimension        Dim             ....  333

ORBITAL ENERGIES
----------------

  NO   OCC          E(Eh)            E(eV)
   0   2.0000     -20.630719      -561.3904
   1   2.0000     -15.610277      -424.7772
   2   2.0000     -11.307170      -307.6837
   3   2.0000     -11.268801      -306.6397
   4   2.0000     -11.254553      -306.2520
   5   2.0000     -11.247270      -306.0538
   6   2.0000     -11.241340      -305.8924
   7   2.0000     -11.228863      -305.5529
   8   2.0000     -11.228429      -305.5411
   9   2.0000      -1.474464       -40.1222
  10   2.0000      -1.180269       -32.1167
  11   2.0000      -1.117463       -30.4077
  12   2.0000      -1.030597       -28.0440
  13   2.0000      -1.012801       -27.5597
  14   2.0000      -0.899320       -24.4717
  15   2.0000      -0.848036       -23.0762
  16   2.0000      -0.784364       -21.3436
  17   2.0000      -0.765554       -20.8318
  18   2.0000      -0.702260       -19.1095
  19   2.0000      -0.658306       -17.9134
  20   2.0000      -0.630636       -17.1605
  21   2.0000      -0.602486       -16.3945
  22   2.0000      -0.598109       -16.2754
  23   2.0000      -0.587150       -15.9772
  24   2.0000      -0.548180       -14.9167
  25   2.0000      -0.539129       -14.6705
  26   2.0000      -0.526968       -14.3395
  27   2.0000      -0.501150       -13.6370
  28   2.0000      -0.495191       -13.4748
  29   2.0000      -0.477803       -13.0017
  30   2.0000      -0.457117       -12.4388
  31   2.0000      -0.399189       -10.8625
  32   2.0000      -0.353582        -9.6214
  33   0.0000       0.113172         3.0796
  34   0.0000       0.133347         3.6285
  35   0.0000       0.146282         3.9805
  36   0.0000       0.166614         4.5338
  37   0.0000       0.173480         4.7206

MULLIKEN ATOMIC CHARGES
-----------------------
   0 C :   -0.413304
   1 C :    0.008217
   2 C :   -0.256971
   3 C :   -0.190363
   4 C :    0.018999
   5 N :   -0.102987
   6 O :   -0.102520
   7 C :   -0.016796
   8 C :   -0.133597
   9 H :    0.132914
  10 H :    0.136953
  11 H :    0.133554
  12 H :    0.106918
  13 H :    0.130593
  14 H :    0.118497
  15 H :    0.130110
  16 H :    0.141630
  17 H :    0.158153
Sum of atomic charges:   -0.0000000

LOEWDIN ATOMIC CHARGES
----------------------
   0 C :   -0.287668
   1 C :   -0.225744
   2 C :   -0.202558
   3 C :   -0.201372
   4 C :   -0.260961
   5 N :    0.056427
   6 O :    0.265586
   7 C :   -0.234999
   8 C :   -0.151358
   9 H :    0.126202
  10 H :    0.125766
  11 H :    0.124715
  12 H :    0.159830
  13 H :    0.132954
  14 H :    0.142053
  15 H :    0.148455
  16 H :    0.144976
  17 H :    0.137696

  Mayer bond orders larger than 0.1
B(  0-C ,  1-C ) :   0.8987 B(  0-C ,  9-H ) :   0.9322 B(  0-C , 10-H ) :   0.9385
B(  0-C , 11-H ) :   0.9396 B(  1-C ,  2-C ) :   0.9282 B(  1-C ,  8-C ) :   0.8965
B(  1-C , 12-H ) :   0.9070 B(  2-C ,  3-C ) :   0.9362 B(  2-C , 13-H ) :   0.9337
B(  2-C , 14-H ) :   0.9225 B(  3-C ,  4-C ) :   0.9280 B(  3-C , 15-H ) :   0.9151
B(  3-C , 16-H ) :   0.9239 B(  4-C ,  5-N ) :   1.6635 B(  4-C ,  8-C ) :   1.1557
B(  5-N ,  6-O ) :   0.8864 B(  5-N ,  7-C ) :   0.1110 B(  6-O ,  7-C ) :   1.1247
B(  7-C ,  8-C ) :   1.5156 B(  7-C , 17-H ) :   0.9134

MP2 TOTAL ENERGY:     -401.257820865 Eh
FINAL SINGLE POINT ENERGY      -401.257820865473

DIPOLE MOMENT
-------------
                                X             Y             Z
Electronic contribution:      4.33952      -5.70262       8.27035
Nuclear contribution   :     -5.22151       6.49882      -9.03739
                        -----------------------------------------
Total Dipole Moment    :     -0.88199       0.79620      -0.76704
                        -----------------------------------------
Magnitude (a.u.)       :      1.41428
Magnitude (Debye)      :      3.59481

                             ****ORCA TERMINATED NORMALLY****
TOTAL RUN TIME: 0 days 0 hours 17 minutes 56 seconds 500 msec
