                         Program Version 3.0.3 - RELEASE   -
|  1> ! RI-MP2 RIJK def2-TZVP def2-TZVP/C def2-TZVP/JK TIGHTSCF
|  2> % maxcore 2000
|  3> % mp2 density relaxed end
|  4> *xyz 0 1
|  5>  C       -0.9248614276     1.1857136735     0.2219618575
|  6>  C       -0.0134932199    -0.0320140076    -0.0315418775
|  7>  C        0.6965514285     0.1221881945    -1.3576090016
|  8>  C        1.9938467474     0.2681100715    -1.6381367534
|  9>  C        3.1843214770     0.3005203712    -0.7143728623
| 10>  C        2.9087279818    -0.0443845297     0.7407767957
| 11>  C        2.0305752005    -1.2921712542     0.9686301174
| 12>  C        0.9056272193    -0.2578105983     1.1660302096
| 13>  O        1.8786380981     0.8116935405     1.2987301682
| 14>  H       -0.3130813804     2.0763790839     0.3894974515
| 15>  H       -1.5825501614     1.3751207236    -0.6316986618
| 16>  H       -1.5532997418     1.0268044955     1.1047689601
| 17>  H       -0.6568828972    -0.9240237375    -0.1041439758
| 18>  H        0.0105951331     0.1472256845    -2.2041013851
| 19>  H        2.2556067655     0.3947227846    -2.6877863016
| 20>  H        3.9560730070    -0.3848278243    -1.0961143943
| 21>  H        3.6373889937     1.3021495742    -0.7565174632
| 22>  H        3.8310693675     0.0172164900     1.3290333964
| 23>  H        1.9291088099    -1.9958138830     0.1409939016
| 24>  H        2.2821161993    -1.8277058589     1.8854492329
| 25>  H        0.3085741597    -0.3571321140     2.0803419058
| 26> *
| 27>
| 28>                          ****END OF INPUT****

CARTESIAN COORDINATES (ANGSTROEM)
---------------------------------
  C     -0.924861    1.185714    0.221962
  C     -0.013493   -0.032014   -0.031542
  C      0.696551    0.122188   -1.357609
  C      1.993847    0.268110   -1.638137
  C      3.184321    0.300520   -0.714373
  C      2.908728   -0.044385    0.740777
  C      2.030575   -1.292171    0.968630
  C      0.905627   -0.257811    1.166030
  O      1.878638    0.811694    1.298730
  H     -0.313081    2.076379    0.389497
  H     -1.582550    1.375121   -0.631699
  H     -1.553300    1.026804    1.104769
  H     -0.656883   -0.924024   -0.104144
  H      0.010595    0.147226   -2.204101
  H      2.255607    0.394723   -2.687786
  H      3.956073   -0.384828   -1.096114
  H      3.637389    1.302150   -0.756517
  H      3.831069    0.017216    1.329033
  H      1.929109   -1.995814    0.140994
  H      2.282116   -1.827706    1.885449
  H      0.308574   -0.357132    2.080342

 Total Charge           Charge          ....    0
 Multiplicity           Mult            ....    1
 Number of Electrons    NEL             ....   68
 Basis Dimension        Dim             ....  351

ORBITAL ENERGIES
----------------

  NO   OCC          E(Eh)            E(eV)
   0   2.0000     -20.538936      -558.8929
   1   2.0000     -11.280110      -306.9474
   2   2.0000     -11.277975      -306.8893
   3   2.0000     -11.232488      -305.6515
   4   2.0000     -11.227642      -305.5197
   5   2.0000     -11.226391      -305.4856
   6   2.0000     -11.223617      -305.4101
   7   2.0000     -11.222921      -305.3912
   8   2.0000     -11.211211      -305.0726
   9   2.0000      -1.373940       -37.3868
  10   2.0000      -1.097568       -29.8663
  11   2.0000      -1.054575       -28.6965
  12   2.0000      -1.006165       -27.3791
  13   2.0000      -0.950792       -25.8724
  14   2.0000      -0.883011       -24.0280
  15   2.0000      -0.848198       -23.0806
  16   2.0000      -0.735948       -20.0262
  17   2.0000      -0.702872       -19.1261
  18   2.0000      -0.696359       -18.9489
  19   2.0000      -0.659226       -17.9385
  20   2.0000      -0.617404       -16.8004
  21   2.0000      -0.607525       -16.5316
  22   2.0000      -0.591406       -16.0930
  23   2.0000      -0.560481       -15.2515
  24   2.0000      -0.555741       -15.1225
  25   2.0000      -0.538920       -14.6647
  26   2.0000      -0.518161       -14.0999
  27   2.0000      -0.509192       -13.8558
  28   2.0000      -0.494144       -13.4463
  29   2.0000      -0.460859       -12.5406
  30   2.0000      -0.454300       -12.3621
  31   2.0000      -0.436209       -11.8699
  32   2.0000      -0.403738       -10.9863
  33   2.0000      -0.346822        -9.4375
  34   0.0000       0.135124         3.6769
  35   0.0000       0.147177         4.0049
  36   0.0000       0.161557         4.3962
  37   0.0000       0.166203         4.5226
  38   0.0000       0.180417         4.9094

MULLIKEN ATOMIC CHARGES
-----------------------
   0 C :   -0.428985
   1 C :    0.046033
   2 C :   -0.239114
   3 C :   -0.219839
   4 C :   -0.143266
   5 C :    0.098427
   6 C :   -0.290934
   7 C :    0.109626
   8 O :   -0.360262
   9 H :    0.153111
  10 H :    0.130043
  11 H :    0.124295
  12 H :    0.089390
  13 H :    0.113895
  14 H :    0.115304
  15 H :    0.113934
  16 H :    0.123586
  17 H :    0.101088
  18 H :    0.136306
  19 H :    0.127406
  20 H :    0.099957
Sum of atomic charges:    0.0000000

LOEWDIN ATOMIC CHARGES
----------------------
   0 C :   -0.282281
   1 C :   -0.258185
   2 C :   -0.153284
   3 C :   -0.171860
   4 C :   -0.242740
   5 C :   -0.276668
   6 C :   -0.197753
   7 C :   -0.256096
   8 O :    0.158214
   9 H :    0.131574
  10 H :    0.122758
  11 H :    0.121807
  12 H :    0.163185
  13 H :    0.148383
  14 H :    0.145909
  15 H :    0.150982
  16 H :    0.153578
  17 H :    0.134020
  18 H :    0.137310
  19 H :    0.134491
  20 H :    0.136657

  Mayer bond orders larger than 0.1
B(  0-C ,  1-C ) :   0.8648 B(  0-C ,  9-H ) :   0.9360 B(  0-C , 10-H ) :   0.9393
B(  0-C , 11-H ) :   0.9334 B(  1-C ,  2-C ) :   0.9196 B(  1-C ,  7-C ) :   0.9353
B(  1-C , 12-H ) :   0.9057 B(  2-C ,  3-C ) :   1.8270 B(  2-C , 13-H ) :   0.9277
B(  3-C ,  4-C ) :   0.9447 B(  3-C , 14-H ) :   0.9271 B(  4-C ,  5-C ) :   0.9536
B(  4-C , 15-H ) :   0.9074 B(  4-C , 16-H ) :   0.8934 B(  5-C ,  6-C ) :   0.9482
B(  5-C ,  8-O ) :   0.9283 B(  5-C , 17-H ) :   0.9243 B(  6-C ,  7-C ) :   0.9133
B(  6-C , 18-H ) :   0.9253 B(  6-C , 19-H ) :   0.9255 B(  7-C ,  8-O ) :   0.9056
B(  7-C , 20-H ) :   0.9224

MP2 TOTAL ENERGY:     -386.410942270 Eh
FINAL SINGLE POINT ENERGY      -386.410942269975

DIPOLE MOMENT
-------------
                                X             Y             Z
Electronic contribution:      2.56066       0.12088       1.40942
Nuclear contribution   :     -2.51357      -0.71982      -1.63044
                        -----------------------------------------
Total Dipole Moment    :      0.04709      -0.59894      -0.22102
                        -----------------------------------------
Magnitude (a.u.)       :      0.64015
Magnitude (Debye)      :      1.62714

                             ****ORCA TERMINATED NORMALLY****
TOTAL RUN TIME: 0 days 0 hours 20 minutes 8 seconds 11 msec
