                         Program Version 3.0.3 - RELEASE   -
|  1> ! RI-MP2 RIJK def2-TZVP def2-TZVP/C def2-TZVP/JK TIGHTSCF
|  2> % maxcore 2000
|  3> % mp2 density relaxed end
|  4> *xyz 0 1
|  5>  C       -0.0356154618     1.5264783236     0.0251399775
|  6>  C        0.0316063031     0.0189262965     0.0231067577
|  7>  C        0.9873223173    -0.7870357202    -0.9162266642
|  8>  C        0.6676168506    -1.9179477649     0.1121751592
|  9>  C        0.6682039077    -0.8017064881     1.1938598430
| 10>  N       -0.7862108494    -2.1733490938    -0.0349503027
| 11>  C       -1.2820633390    -0.7669318230    -0.1681678664
| 12>  C        1.4777291426    -3.1137857242     0.2207771374
| 13>  N        2.1465885245    -4.0538848101     0.2897210981
| 14>  H        0.9521571568     1.9695020062     0.1860976368
| 15>  H       -0.4219218071     1.9049541174    -0.9280348170
| 16>  H       -0.6987548628     1.8886564831     0.8188288708
| 17>  H        0.6835299836    -0.9597983434    -1.9526935905
| 18>  H        2.0208451119    -0.4391224666    -0.8678549543
| 19>  H        1.6732138787    -0.4644739463     1.4503519391
| 20>  H        0.0707958009    -0.9950852828     2.0867938515
| 21>  H       -0.9549656859    -2.6934407441    -0.8908146831
| 22>  H       -2.0200598052    -0.5406643142     0.6092680386
| 23>  H       -1.7413245964    -0.5756992449    -1.1443904115
| 24> *
| 25>
| 26>                          ****END OF INPUT****

CARTESIAN COORDINATES (ANGSTROEM)
---------------------------------
  C     -0.035615    1.526478    0.025140
  C      0.031606    0.018926    0.023107
  C      0.987322   -0.787036   -0.916227
  C      0.667617   -1.917948    0.112175
  C      0.668204   -0.801706    1.193860
  N     -0.786211   -2.173349   -0.034950
  C     -1.282063   -0.766932   -0.168168
  C      1.477729   -3.113786    0.220777
  N      2.146589   -4.053885    0.289721
  H      0.952157    1.969502    0.186098
  H     -0.421922    1.904954   -0.928035
  H     -0.698755    1.888656    0.818829
  H      0.683530   -0.959798   -1.952694
  H      2.020845   -0.439122   -0.867855
  H      1.673214   -0.464474    1.450352
  H      0.070796   -0.995085    2.086794
  H     -0.954966   -2.693441   -0.890815
  H     -2.020060   -0.540664    0.609268
  H     -1.741325   -0.575699   -1.144390

 Total Charge           Charge          ....    0
 Multiplicity           Mult            ....    1
 Number of Electrons    NEL             ....   66
 Basis Dimension        Dim             ....  339

ORBITAL ENERGIES
----------------

  NO   OCC          E(Eh)            E(eV)
   0   2.0000     -15.569929      -423.6793
   1   2.0000     -15.568452      -423.6391
   2   2.0000     -11.314151      -307.8737
   3   2.0000     -11.269670      -306.6633
   4   2.0000     -11.267304      -306.5989
   5   2.0000     -11.264173      -306.5137
   6   2.0000     -11.251084      -306.1575
   7   2.0000     -11.249162      -306.1053
   8   2.0000     -11.234589      -305.7087
   9   2.0000      -1.281412       -34.8690
  10   2.0000      -1.212648       -32.9978
  11   2.0000      -1.107224       -30.1291
  12   2.0000      -1.030587       -28.0437
  13   2.0000      -0.946653       -25.7597
  14   2.0000      -0.930515       -25.3206
  15   2.0000      -0.855540       -23.2804
  16   2.0000      -0.768759       -20.9190
  17   2.0000      -0.716758       -19.5040
  18   2.0000      -0.671926       -18.2840
  19   2.0000      -0.650201       -17.6929
  20   2.0000      -0.607832       -16.5400
  21   2.0000      -0.586303       -15.9541
  22   2.0000      -0.576753       -15.6942
  23   2.0000      -0.555031       -15.1032
  24   2.0000      -0.551444       -15.0055
  25   2.0000      -0.547342       -14.8939
  26   2.0000      -0.529578       -14.4106
  27   2.0000      -0.504889       -13.7387
  28   2.0000      -0.481856       -13.1120
  29   2.0000      -0.458546       -12.4777
  30   2.0000      -0.455485       -12.3944
  31   2.0000      -0.439005       -11.9459
  32   2.0000      -0.388581       -10.5738
  33   0.0000       0.116137         3.1602
  34   0.0000       0.132886         3.6160
  35   0.0000       0.155802         4.2396
  36   0.0000       0.164147         4.4667
  37   0.0000       0.177019         4.8169

MULLIKEN ATOMIC CHARGES
-----------------------
   0 C :   -0.399236
   1 C :    0.095906
   2 C :   -0.260725
   3 C :    0.237946
   4 C :   -0.251480
   5 N :   -0.319615
   6 C :   -0.195935
   7 C :   -0.300657
   8 N :   -0.030812
   9 H :    0.138263
  10 H :    0.137933
  11 H :    0.140932
  12 H :    0.127826
  13 H :    0.136900
  14 H :    0.139132
  15 H :    0.135508
  16 H :    0.216180
  17 H :    0.120222
  18 H :    0.131713
Sum of atomic charges:   -0.0000000

LOEWDIN ATOMIC CHARGES
----------------------
   0 C :   -0.272062
   1 C :   -0.269456
   2 C :   -0.143812
   3 C :   -0.294632
   4 C :   -0.131062
   5 N :    0.030709
   6 C :   -0.228996
   7 C :   -0.146850
   8 N :    0.072319
   9 H :    0.129964
  10 H :    0.130986
  11 H :    0.131894
  12 H :    0.131874
  13 H :    0.145053
  14 H :    0.145700
  15 H :    0.138702
  16 H :    0.170286
  17 H :    0.131366
  18 H :    0.128019

  Mayer bond orders larger than 0.1
B(  0-C ,  1-C ) :   0.8615 B(  0-C ,  9-H ) :   0.9424 B(  0-C , 10-H ) :   0.9397
B(  0-C , 11-H ) :   0.9413 B(  1-C ,  2-C ) :   0.8797 B(  1-C ,  4-C ) :   0.9128
B(  1-C ,  6-C ) :   0.9039 B(  2-C ,  3-C ) :   0.9244 B(  2-C , 12-H ) :   0.9179
B(  2-C , 13-H ) :   0.9207 B(  3-C ,  4-C ) :   0.8845 B(  3-C ,  5-N ) :   0.9487
B(  3-C ,  7-C ) :   0.8706 B(  4-C , 14-H ) :   0.9198 B(  4-C , 15-H ) :   0.9127
B(  5-N ,  6-C ) :   0.9512 B(  5-N , 16-H ) :   0.8758 B(  6-C , 17-H ) :   0.9213
B(  6-C , 18-H ) :   0.9361 B(  7-C ,  8-N ) :   2.9090

MP2 TOTAL ENERGY:     -381.398479432 Eh
FINAL SINGLE POINT ENERGY      -381.398479431610

DIPOLE MOMENT
-------------
                                X             Y             Z
Electronic contribution:      3.45690      -9.54795       0.76303
Nuclear contribution   :     -4.15541      11.28738      -1.27039
                        -----------------------------------------
Total Dipole Moment    :     -0.69850       1.73943      -0.50735
                        -----------------------------------------
Magnitude (a.u.)       :      1.94189
Magnitude (Debye)      :      4.93589

                             ****ORCA TERMINATED NORMALLY****
TOTAL RUN TIME: 0 days 0 hours 20 minutes 12 seconds 650 msec
