                         Program Version 3.0.3 - RELEASE   -
|  1> ! RI-MP2 RIJK def2-TZVP def2-TZVP/C def2-TZVP/JK TIGHTSCF
|  2> % maxcore 2000
|  3> % mp2 density relaxed end
|  4> *xyz 0 1
|  5>  O       -0.0983986757     1.2888569362    -0.7613666352
|  6>  C       -0.0154262717     0.1252894937     0.0543826184
|  7>  C       -1.3556380730    -0.5598231081     0.0179151575
|  8>  C       -1.7060790068    -1.5096959389    -1.1018513787
|  9>  C       -1.5306098259    -2.0358831685     0.3014200838
| 10>  C       -0.3886200405    -2.9660909282     0.6732563950
| 11>  C       -0.7517860387    -4.4294950772     0.5073897917
| 12>  C       -0.5731829437    -5.1258945978    -0.8176911432
| 13>  C        0.3226887605    -5.4739840879     0.3472011358
| 14>  H        0.7287612333     1.7719040527    -0.6736146596
| 15>  H        0.7726649208    -0.5520486295    -0.3085267247
| 16>  H        0.2396341170     0.3934916545     1.0928420675
| 17>  H       -2.1591674480     0.0834166466     0.3669089709
| 18>  H       -2.6998068309    -1.4673439614    -1.5335984747
| 19>  H       -0.9218158587    -1.7321356673    -1.8193665205
| 20>  H       -2.4548189869    -2.2776109126     0.8226381662
| 21>  H        0.4952407149    -2.7487120707     0.0617761964
| 22>  H       -0.0913986837    -2.7857108655     1.7162413081
| 23>  H       -1.6218312748    -4.7359382708     1.0841330071
| 24>  H       -1.3182822632    -5.8492873852    -1.1300221370
| 25>  H       -0.1414163461    -4.5571526542    -1.6346644122
| 26>  H        1.3540138959    -5.1372837789     0.3104379737
| 27>  H        0.1895314659    -6.4347164411     0.8324291235
| 28> *
| 29>
| 30>                          ****END OF INPUT****

CARTESIAN COORDINATES (ANGSTROEM)
---------------------------------
  O     -0.098399    1.288857   -0.761367
  C     -0.015426    0.125289    0.054383
  C     -1.355638   -0.559823    0.017915
  C     -1.706079   -1.509696   -1.101851
  C     -1.530610   -2.035883    0.301420
  C     -0.388620   -2.966091    0.673256
  C     -0.751786   -4.429495    0.507390
  C     -0.573183   -5.125895   -0.817691
  C      0.322689   -5.473984    0.347201
  H      0.728761    1.771904   -0.673615
  H      0.772665   -0.552049   -0.308527
  H      0.239634    0.393492    1.092842
  H     -2.159167    0.083417    0.366909
  H     -2.699807   -1.467344   -1.533598
  H     -0.921816   -1.732136   -1.819367
  H     -2.454819   -2.277611    0.822638
  H      0.495241   -2.748712    0.061776
  H     -0.091399   -2.785711    1.716241
  H     -1.621831   -4.735938    1.084133
  H     -1.318282   -5.849287   -1.130022
  H     -0.141416   -4.557153   -1.634664
  H      1.354014   -5.137284    0.310438
  H      0.189531   -6.434716    0.832429

 Total Charge           Charge          ....    0
 Multiplicity           Mult            ....    1
 Number of Electrons    NEL             ....   70
 Basis Dimension        Dim             ....  363

ORBITAL ENERGIES
----------------

  NO   OCC          E(Eh)            E(eV)
   0   2.0000     -20.551091      -559.2236
   1   2.0000     -11.274760      -306.8018
   2   2.0000     -11.227247      -305.5089
   3   2.0000     -11.227173      -305.5069
   4   2.0000     -11.224800      -305.4423
   5   2.0000     -11.222631      -305.3833
   6   2.0000     -11.220367      -305.3217
   7   2.0000     -11.219601      -305.3009
   8   2.0000     -11.215995      -305.2027
   9   2.0000      -1.354460       -36.8567
  10   2.0000      -1.153018       -31.3752
  11   2.0000      -1.130309       -30.7573
  12   2.0000      -0.980317       -26.6758
  13   2.0000      -0.935769       -25.4636
  14   2.0000      -0.818731       -22.2788
  15   2.0000      -0.804760       -21.8986
  16   2.0000      -0.782310       -21.2877
  17   2.0000      -0.750622       -20.4255
  18   2.0000      -0.692983       -18.8570
  19   2.0000      -0.667664       -18.1681
  20   2.0000      -0.659397       -17.9431
  21   2.0000      -0.617370       -16.7995
  22   2.0000      -0.610551       -16.6139
  23   2.0000      -0.595937       -16.2163
  24   2.0000      -0.560077       -15.2405
  25   2.0000      -0.542620       -14.7654
  26   2.0000      -0.510074       -13.8798
  27   2.0000      -0.500884       -13.6298
  28   2.0000      -0.498118       -13.5545
  29   2.0000      -0.476852       -12.9758
  30   2.0000      -0.451550       -12.2873
  31   2.0000      -0.421964       -11.4822
  32   2.0000      -0.410466       -11.1693
  33   2.0000      -0.395817       -10.7707
  34   2.0000      -0.388672       -10.5763
  35   0.0000       0.136033         3.7017
  36   0.0000       0.148197         4.0326
  37   0.0000       0.154772         4.2116
  38   0.0000       0.166962         4.5433
  39   0.0000       0.170354         4.6356

MULLIKEN ATOMIC CHARGES
-----------------------
   0 O :   -0.459376
   1 C :   -0.090307
   2 C :   -0.027249
   3 C :   -0.283179
   4 C :   -0.096936
   5 C :   -0.268493
   6 C :   -0.065366
   7 C :   -0.266060
   8 C :   -0.260807
   9 H :    0.311761
  10 H :    0.086984
  11 H :    0.098104
  12 H :    0.115837
  13 H :    0.129341
  14 H :    0.116018
  15 H :    0.111324
  16 H :    0.113946
  17 H :    0.120684
  18 H :    0.113651
  19 H :    0.126298
  20 H :    0.122059
  21 H :    0.124518
  22 H :    0.127247
Sum of atomic charges:   -0.0000000

LOEWDIN ATOMIC CHARGES
----------------------
   0 O :   -0.049579
   1 C :   -0.332625
   2 C :   -0.213787
   3 C :   -0.202704
   4 C :   -0.202284
   5 C :   -0.233387
   6 C :   -0.228794
   7 C :   -0.230288
   8 C :   -0.233541
   9 H :    0.169839
  10 H :    0.116665
  11 H :    0.118232
  12 H :    0.150509
  13 H :    0.130960
  14 H :    0.135572
  15 H :    0.150282
  16 H :    0.142937
  17 H :    0.143915
  18 H :    0.147047
  19 H :    0.129650
  20 H :    0.130990
  21 H :    0.130870
  22 H :    0.129522

  Mayer bond orders larger than 0.1
B(  0-O ,  1-C ) :   1.0347 B(  0-O ,  9-H ) :   0.8497 B(  1-C ,  2-C ) :   0.9361
B(  1-C , 10-H ) :   0.9179 B(  1-C , 11-H ) :   0.9370 B(  2-C ,  3-C ) :   0.8867
B(  2-C ,  4-C ) :   0.8490 B(  2-C , 12-H ) :   0.9278 B(  3-C ,  4-C ) :   0.9003
B(  3-C , 13-H ) :   0.9257 B(  3-C , 14-H ) :   0.9251 B(  4-C ,  5-C ) :   0.9210
B(  4-C , 15-H ) :   0.9246 B(  5-C ,  6-C ) :   0.9186 B(  5-C , 16-H ) :   0.9348
B(  5-C , 17-H ) :   0.9307 B(  6-C ,  7-C ) :   0.8911 B(  6-C ,  8-C ) :   0.8898
B(  6-C , 18-H ) :   0.9275 B(  7-C ,  8-C ) :   0.9037 B(  7-C , 19-H ) :   0.9297
B(  7-C , 20-H ) :   0.9306 B(  8-C , 21-H ) :   0.9297 B(  8-C , 22-H ) :   0.9309

MP2 TOTAL ENERGY:     -387.577732702 Eh
FINAL SINGLE POINT ENERGY      -387.577732702441

DIPOLE MOMENT
-------------
                                X             Y             Z
Electronic contribution:     -0.88126       4.47636      -0.22305
Nuclear contribution   :      1.31395      -4.64505       0.60361
                        -----------------------------------------
Total Dipole Moment    :      0.43269      -0.16869       0.38056
                        -----------------------------------------
Magnitude (a.u.)       :      0.60041
Magnitude (Debye)      :      1.52613

                             ****ORCA TERMINATED NORMALLY****
TOTAL RUN TIME: 0 days 0 hours 27 minutes 54 seconds 750 msec
