                         Program Version 3.0.3 - RELEASE   -
|  1> ! RI-MP2 RIJK def2-TZVP def2-TZVP/C def2-TZVP/JK TIGHTSCF
|  2> % maxcore 2000
|  3> % mp2 density relaxed end
|  4> *xyz 0 1
|  5>  O       -0.0542771766    -0.0500234416     0.0035310654
|  6>  C       -0.0227200660     1.1487445300     0.0092663218
|  7>  C       -1.2057864946     2.1368188339     0.0319112172
|  8>  O       -0.6489836627     3.4646786288     0.0304014634
|  9>  C        0.6859190066     3.3177106727     0.0097255738
| 10>  N        1.6567779334     4.1650348936    -0.0004139599
| 11>  C        2.7914689336     3.3369037042    -0.0216360603
| 12>  C        2.4760492454     2.0113661636    -0.0237235343
| 13>  N        1.0782000283     1.9955672665    -0.0029077134
| 14>  H       -1.8366452323     2.0047751091    -0.8511948673
| 15>  H       -1.8100949848     1.9956699464     0.9320120187
| 16>  H        3.7779222777     3.7746061213    -0.0341325515
| 17>  H        3.0602846517     1.1088810415    -0.0370957634
| 18> *
| 19>
| 20>                          ****END OF INPUT****

CARTESIAN COORDINATES (ANGSTROEM)
---------------------------------
  O     -0.054277   -0.050023    0.003531
  C     -0.022720    1.148745    0.009266
  C     -1.205786    2.136819    0.031911
  O     -0.648984    3.464679    0.030401
  C      0.685919    3.317711    0.009726
  N      1.656778    4.165035   -0.000414
  C      2.791469    3.336904   -0.021636
  C      2.476049    2.011366   -0.023724
  N      1.078200    1.995567   -0.002908
  H     -1.836645    2.004775   -0.851195
  H     -1.810095    1.995670    0.932012
  H      3.777922    3.774606   -0.034133
  H      3.060285    1.108881   -0.037096

 Total Charge           Charge          ....    0
 Multiplicity           Mult            ....    1
 Number of Electrons    NEL             ....   64
 Basis Dimension        Dim             ....  303

ORBITAL ENERGIES
----------------

  NO   OCC          E(Eh)            E(eV)
   0   2.0000     -20.639728      -561.6356
   1   2.0000     -20.576951      -559.9273
   2   2.0000     -15.651260      -425.8924
   3   2.0000     -15.566477      -423.5854
   4   2.0000     -11.406514      -310.3870
   5   2.0000     -11.387991      -309.8830
   6   2.0000     -11.341721      -308.6239
   7   2.0000     -11.283333      -307.0351
   8   2.0000     -11.279733      -306.9371
   9   2.0000      -1.498111       -40.7657
  10   2.0000      -1.432839       -38.9895
  11   2.0000      -1.353607       -36.8335
  12   2.0000      -1.227020       -33.3889
  13   2.0000      -1.043924       -28.4066
  14   2.0000      -1.031761       -28.0756
  15   2.0000      -0.883787       -24.0491
  16   2.0000      -0.849242       -23.1090
  17   2.0000      -0.810308       -22.0496
  18   2.0000      -0.736864       -20.0511
  19   2.0000      -0.707844       -19.2614
  20   2.0000      -0.685331       -18.6488
  21   2.0000      -0.670393       -18.2423
  22   2.0000      -0.639769       -17.4090
  23   2.0000      -0.628397       -17.0995
  24   2.0000      -0.615534       -16.7495
  25   2.0000      -0.596302       -16.2262
  26   2.0000      -0.586141       -15.9497
  27   2.0000      -0.511508       -13.9188
  28   2.0000      -0.482130       -13.1194
  29   2.0000      -0.458999       -12.4900
  30   2.0000      -0.432122       -11.7586
  31   2.0000      -0.339237        -9.2311
  32   0.0000       0.097545         2.6543
  33   0.0000       0.127927         3.4811
  34   0.0000       0.169139         4.6025
  35   0.0000       0.176767         4.8101
  36   0.0000       0.181680         4.9438

MULLIKEN ATOMIC CHARGES
-----------------------
   0 O :   -0.274760
   1 C :    0.158512
   2 C :   -0.031825
   3 O :   -0.246961
   4 C :    0.259501
   5 N :   -0.252415
   6 C :   -0.065777
   7 C :   -0.144479
   8 N :   -0.033169
   9 H :    0.155199
  10 H :    0.155194
  11 H :    0.148406
  12 H :    0.172575
Sum of atomic charges:   -0.0000000

LOEWDIN ATOMIC CHARGES
----------------------
   0 O :    0.152991
   1 C :   -0.378905
   2 C :   -0.206747
   3 O :    0.263567
   4 C :   -0.396652
   5 N :    0.112933
   6 C :   -0.216290
   7 C :   -0.194027
   8 N :    0.284500
   9 H :    0.147935
  10 H :    0.147933
  11 H :    0.138238
  12 H :    0.144524

  Mayer bond orders larger than 0.1
B(  0-O ,  1-C ) :   2.0237 B(  1-C ,  2-C ) :   0.9292 B(  1-C ,  8-N ) :   0.9922
B(  2-C ,  3-O ) :   0.8737 B(  2-C ,  9-H ) :   0.9072 B(  2-C , 10-H ) :   0.9072
B(  3-O ,  4-C ) :   1.0941 B(  4-C ,  5-N ) :   1.7134 B(  4-C ,  8-N ) :   1.0759
B(  5-N ,  6-C ) :   1.1401 B(  6-C ,  7-C ) :   1.5922 B(  6-C , 11-H ) :   0.9362
B(  7-C ,  8-N ) :   1.0053 B(  7-C , 12-H ) :   0.9152

MP2 TOTAL ENERGY:     -452.059405052 Eh
FINAL SINGLE POINT ENERGY      -452.059405052069

DIPOLE MOMENT
-------------
                                X             Y             Z
Electronic contribution:     -0.53841       0.09838       0.00869
Nuclear contribution   :      0.33874      -0.55000      -0.00802
                        -----------------------------------------
Total Dipole Moment    :     -0.19967      -0.45161       0.00066
                        -----------------------------------------
Magnitude (a.u.)       :      0.49379
Magnitude (Debye)      :      1.25510

                             ****ORCA TERMINATED NORMALLY****
TOTAL RUN TIME: 0 days 0 hours 14 minutes 15 seconds 786 msec
