                         Program Version 3.0.3 - RELEASE   -
|  1> ! RI-MP2 RIJK def2-TZVP def2-TZVP/C def2-TZVP/JK TIGHTSCF
|  2> % maxcore 2000
|  3> % mp2 density relaxed end
|  4> *xyz 0 1
|  5>  C       -0.0351219222     1.4513340344    -0.0152528443
|  6>  C       -0.0271372977    -0.0044751577    -0.0008294512
|  7>  C       -0.0163013351    -1.2084894356     0.0285037282
|  8>  C       -0.0383786920    -2.6675500933     0.0277983558
|  9>  C       -1.4895407387    -3.2018823854    -0.1264110508
| 10>  O       -1.6379704958    -4.5363931139     0.2976942052
| 11>  C        0.9186586102    -3.1797568164    -1.0895351469
| 12>  C        0.9364877449    -4.6339530191    -1.2360332235
| 13>  N        0.9247448850    -5.7835825041    -1.3626818142
| 14>  H        0.6548299049     1.8447657883    -0.7696049901
| 15>  H       -1.0334057731     1.8400750918    -0.2434971827
| 16>  H        0.2664204154     1.8587200674     0.9557659037
| 17>  H        0.3254532388    -3.0464243495     0.9908155637
| 18>  H       -2.1386280403    -2.6016114904     0.5163747951
| 19>  H       -1.8247179431    -3.0486684772    -1.1644599825
| 20>  H       -1.2064491766    -5.1248410370    -0.3315147856
| 21>  H        0.6182373955    -2.7413950881    -2.0476599827
| 22>  H        1.9371849998    -2.8347143939    -0.8876251970
| 23> *
| 24>
| 25>                          ****END OF INPUT****

CARTESIAN COORDINATES (ANGSTROEM)
---------------------------------
  C     -0.035122    1.451334   -0.015253
  C     -0.027137   -0.004475   -0.000829
  C     -0.016301   -1.208489    0.028504
  C     -0.038379   -2.667550    0.027798
  C     -1.489541   -3.201882   -0.126411
  O     -1.637970   -4.536393    0.297694
  C      0.918659   -3.179757   -1.089535
  C      0.936488   -4.633953   -1.236033
  N      0.924745   -5.783583   -1.362682
  H      0.654830    1.844766   -0.769605
  H     -1.033406    1.840075   -0.243497
  H      0.266420    1.858720    0.955766
  H      0.325453   -3.046424    0.990816
  H     -2.138628   -2.601611    0.516375
  H     -1.824718   -3.048668   -1.164460
  H     -1.206449   -5.124841   -0.331515
  H      0.618237   -2.741395   -2.047660
  H      1.937185   -2.834714   -0.887625

 Total Charge           Charge          ....    0
 Multiplicity           Mult            ....    1
 Number of Electrons    NEL             ....   66
 Basis Dimension        Dim             ....  333

ORBITAL ENERGIES
----------------

  NO   OCC          E(Eh)            E(eV)
   0   2.0000     -20.560719      -559.4856
   1   2.0000     -15.583339      -424.0442
   2   2.0000     -11.295231      -307.3589
   3   2.0000     -11.293675      -307.3165
   4   2.0000     -11.288760      -307.1828
   5   2.0000     -11.284215      -307.0591
   6   2.0000     -11.259720      -306.3926
   7   2.0000     -11.244241      -305.9713
   8   2.0000     -11.234994      -305.7197
   9   2.0000      -1.370173       -37.2843
  10   2.0000      -1.234442       -33.5909
  11   2.0000      -1.128905       -30.7191
  12   2.0000      -1.062739       -28.9186
  13   2.0000      -0.996981       -27.1292
  14   2.0000      -0.953516       -25.9465
  15   2.0000      -0.865901       -23.5624
  16   2.0000      -0.726944       -19.7811
  17   2.0000      -0.718986       -19.5646
  18   2.0000      -0.676618       -18.4117
  19   2.0000      -0.645936       -17.5768
  20   2.0000      -0.637577       -17.3494
  21   2.0000      -0.614117       -16.7110
  22   2.0000      -0.600524       -16.3411
  23   2.0000      -0.598471       -16.2852
  24   2.0000      -0.580393       -15.7933
  25   2.0000      -0.567014       -15.4292
  26   2.0000      -0.560859       -15.2618
  27   2.0000      -0.517328       -14.0772
  28   2.0000      -0.473570       -12.8865
  29   2.0000      -0.470021       -12.7899
  30   2.0000      -0.456655       -12.4262
  31   2.0000      -0.387998       -10.5579
  32   2.0000      -0.384498       -10.4627
  33   0.0000       0.114191         3.1073
  34   0.0000       0.135741         3.6937
  35   0.0000       0.154103         4.1934
  36   0.0000       0.156363         4.2549
  37   0.0000       0.162118         4.4115

MULLIKEN ATOMIC CHARGES
-----------------------
   0 C :   -0.481789
   1 C :    0.100613
   2 C :   -0.078227
   3 C :   -0.198947
   4 C :   -0.047815
   5 O :   -0.458936
   6 C :   -0.096911
   7 C :   -0.211586
   8 N :   -0.061630
   9 H :    0.164252
  10 H :    0.166553
  11 H :    0.167683
  12 H :    0.130395
  13 H :    0.131695
  14 H :    0.108279
  15 H :    0.329739
  16 H :    0.166680
  17 H :    0.169952
Sum of atomic charges:    0.0000000

LOEWDIN ATOMIC CHARGES
----------------------
   0 C :   -0.291340
   1 C :   -0.091795
   2 C :   -0.070398
   3 C :   -0.236520
   4 C :   -0.312523
   5 O :   -0.025891
   6 C :   -0.211082
   7 C :   -0.198898
   8 N :    0.054808
   9 H :    0.142212
  10 H :    0.142858
  11 H :    0.143278
  12 H :    0.175525
  13 H :    0.138153
  14 H :    0.123699
  15 H :    0.175798
  16 H :    0.170908
  17 H :    0.171208

  Mayer bond orders larger than 0.1
B(  0-C ,  1-C ) :   0.8296 B(  0-C ,  9-H ) :   0.9471 B(  0-C , 10-H ) :   0.9468
B(  0-C , 11-H ) :   0.9483 B(  1-C ,  2-C ) :   2.6739 B(  1-C ,  3-C ) :  -0.1126
B(  2-C ,  3-C ) :   1.0717 B(  3-C ,  4-C ) :   0.9041 B(  3-C ,  6-C ) :   0.9331
B(  3-C , 12-H ) :   0.9082 B(  4-C ,  5-O ) :   0.9784 B(  4-C , 13-H ) :   0.9282
B(  4-C , 14-H ) :   0.9277 B(  5-O , 15-H ) :   0.8288 B(  6-C ,  7-C ) :   0.8963
B(  6-C , 16-H ) :   0.9036 B(  6-C , 17-H ) :   0.9014 B(  7-C ,  8-N ) :   2.8371

MP2 TOTAL ENERGY:     -401.240505222 Eh
FINAL SINGLE POINT ENERGY      -401.240505222325

DIPOLE MOMENT
-------------
                                X             Y             Z
Electronic contribution:      1.66553      -7.65054      -0.66466
Nuclear contribution   :     -1.39988       9.51680       0.38161
                        -----------------------------------------
Total Dipole Moment    :      0.26566       1.86626      -0.28305
                        -----------------------------------------
Magnitude (a.u.)       :      1.90621
Magnitude (Debye)      :      4.84519

                             ****ORCA TERMINATED NORMALLY****
TOTAL RUN TIME: 0 days 0 hours 13 minutes 33 seconds 765 msec
