                         Program Version 3.0.3 - RELEASE   -
|  1> ! RI-MP2 RIJK def2-TZVP def2-TZVP/C def2-TZVP/JK TIGHTSCF
|  2> % maxcore 2000
|  3> % mp2 density relaxed end
|  4> *xyz 0 1
|  5>  C        0.4534072829     1.6084924581     0.1022218830
|  6>  C       -0.0662423434     0.1981981793    -0.0864097427
|  7>  C        0.4810093292    -0.6390187442    -1.2631197889
|  8>  C        0.9698178722    -1.6032174098    -0.1694568156
|  9>  C        0.5473664346    -3.0895803288    -0.1481450265
| 10>  N        1.9198760129    -3.4435860050    -0.5599264806
| 11>  C        2.5209213243    -4.6345510676    -0.0037787062
| 12>  C        2.4186264601    -2.1286969309    -0.1116576781
| 13>  O        0.5060201712    -0.7354891861     0.8695787822
| 14>  H        1.5441541951     1.6358081698     0.0153679298
| 15>  H        0.0256038100     2.2777259441    -0.6525778638
| 16>  H        0.1782754086     1.9886761507     1.0911106234
| 17>  H       -1.1621286211     0.1856796771    -0.0135135773
| 18>  H       -0.2590050357    -1.0424661266    -1.9562527823
| 19>  H        1.2797187040    -0.1539250183    -1.8295690596
| 20>  H        0.3006381380    -3.3971707888     0.8819986700
| 21>  H       -0.2466042660    -3.4227361588    -0.8265668763
| 22>  H        1.9887563858    -5.5223229870    -0.3621720124
| 23>  H        3.5628328227    -4.7137336085    -0.3324001203
| 24>  H        2.5087213693    -4.6512017443     1.1032794920
| 25>  H        3.1717057778    -1.6655879567    -0.7596993652
| 26>  H        2.7804309273    -2.1234655175     0.9304848553
| 27> *
| 28>
| 29>                          ****END OF INPUT****

CARTESIAN COORDINATES (ANGSTROEM)
---------------------------------
  C      0.453407    1.608492    0.102222
  C     -0.066242    0.198198   -0.086410
  C      0.481009   -0.639019   -1.263120
  C      0.969818   -1.603217   -0.169457
  C      0.547366   -3.089580   -0.148145
  N      1.919876   -3.443586   -0.559926
  C      2.520921   -4.634551   -0.003779
  C      2.418626   -2.128697   -0.111658
  O      0.506020   -0.735489    0.869579
  H      1.544154    1.635808    0.015368
  H      0.025604    2.277726   -0.652578
  H      0.178275    1.988676    1.091111
  H     -1.162129    0.185680   -0.013514
  H     -0.259005   -1.042466   -1.956253
  H      1.279719   -0.153925   -1.829569
  H      0.300638   -3.397171    0.881999
  H     -0.246604   -3.422736   -0.826567
  H      1.988756   -5.522323   -0.362172
  H      3.562833   -4.713734   -0.332400
  H      2.508721   -4.651202    1.103279
  H      3.171706   -1.665588   -0.759699
  H      2.780431   -2.123466    0.930485

 Total Charge           Charge          ....    0
 Multiplicity           Mult            ....    1
 Number of Electrons    NEL             ....   70
 Basis Dimension        Dim             ....  357

ORBITAL ENERGIES
----------------

  NO   OCC          E(Eh)            E(eV)
   0   2.0000     -20.544675      -559.0490
   1   2.0000     -15.543571      -422.9621
   2   2.0000     -11.285724      -307.1002
   3   2.0000     -11.282675      -307.0172
   4   2.0000     -11.245388      -306.0026
   5   2.0000     -11.245376      -306.0022
   6   2.0000     -11.240528      -305.8703
   7   2.0000     -11.226464      -305.4876
   8   2.0000     -11.217481      -305.2432
   9   2.0000      -1.380872       -37.5754
  10   2.0000      -1.243726       -33.8435
  11   2.0000      -1.031537       -28.0696
  12   2.0000      -1.023471       -27.8501
  13   2.0000      -0.954203       -25.9652
  14   2.0000      -0.919392       -25.0179
  15   2.0000      -0.851809       -23.1789
  16   2.0000      -0.782283       -21.2870
  17   2.0000      -0.721458       -19.6319
  18   2.0000      -0.677078       -18.4242
  19   2.0000      -0.664507       -18.0822
  20   2.0000      -0.657808       -17.8999
  21   2.0000      -0.616414       -16.7735
  22   2.0000      -0.596767       -16.2389
  23   2.0000      -0.575974       -15.6731
  24   2.0000      -0.562323       -15.3016
  25   2.0000      -0.553794       -15.0695
  26   2.0000      -0.530642       -14.4395
  27   2.0000      -0.525324       -14.2948
  28   2.0000      -0.516444       -14.0532
  29   2.0000      -0.501880       -13.6568
  30   2.0000      -0.474418       -12.9096
  31   2.0000      -0.455195       -12.3865
  32   2.0000      -0.428890       -11.6707
  33   2.0000      -0.395901       -10.7730
  34   2.0000      -0.359097        -9.7715
  35   0.0000       0.137437         3.7399
  36   0.0000       0.148590         4.0433
  37   0.0000       0.165570         4.5054
  38   0.0000       0.171875         4.6770
  39   0.0000       0.195638         5.3236

MULLIKEN ATOMIC CHARGES
-----------------------
   0 C :   -0.406469
   1 C :    0.135642
   2 C :   -0.332975
   3 C :    0.272654
   4 C :   -0.200436
   5 N :   -0.155467
   6 C :   -0.320855
   7 C :   -0.182381
   8 O :   -0.329328
   9 H :    0.126338
  10 H :    0.126441
  11 H :    0.137404
  12 H :    0.084915
  13 H :    0.132424
  14 H :    0.124223
  15 H :    0.101229
  16 H :    0.106369
  17 H :    0.135028
  18 H :    0.135030
  19 H :    0.103515
  20 H :    0.105075
  21 H :    0.101623
Sum of atomic charges:    0.0000000

LOEWDIN ATOMIC CHARGES
----------------------
   0 C :   -0.298663
   1 C :   -0.296285
   2 C :   -0.182475
   3 C :   -0.302779
   4 C :   -0.219472
   5 N :    0.064218
   6 C :   -0.342582
   7 C :   -0.220368
   8 O :    0.180177
   9 H :    0.125047
  10 H :    0.127521
  11 H :    0.128414
  12 H :    0.133134
  13 H :    0.134387
  14 H :    0.137243
  15 H :    0.126994
  16 H :    0.120515
  17 H :    0.118027
  18 H :    0.118027
  19 H :    0.100705
  20 H :    0.120607
  21 H :    0.127606

  Mayer bond orders larger than 0.1
B(  0-C ,  1-C ) :   0.9113 B(  0-C ,  9-H ) :   0.9374 B(  0-C , 10-H ) :   0.9291
B(  0-C , 11-H ) :   0.9363 B(  1-C ,  2-C ) :   0.9449 B(  1-C ,  8-O ) :   0.9184
B(  1-C , 12-H ) :   0.9138 B(  2-C ,  3-C ) :   0.9194 B(  2-C , 13-H ) :   0.9210
B(  2-C , 14-H ) :   0.9265 B(  3-C ,  4-C ) :   0.9060 B(  3-C ,  7-C ) :   0.8981
B(  3-C ,  8-O ) :   1.0075 B(  4-C ,  5-N ) :   0.9545 B(  4-C , 15-H ) :   0.9172
B(  4-C , 16-H ) :   0.9091 B(  5-N ,  6-C ) :   0.9116 B(  5-N ,  7-C ) :   0.9536
B(  6-C , 17-H ) :   0.9382 B(  6-C , 18-H ) :   0.9382 B(  6-C , 19-H ) :   0.9272
B(  7-C , 20-H ) :   0.9087 B(  7-C , 21-H ) :   0.9174

MP2 TOTAL ENERGY:     -403.616238912 Eh
FINAL SINGLE POINT ENERGY      -403.616238911912

DIPOLE MOMENT
-------------
                                X             Y             Z
Electronic contribution:     -1.47995      -0.10319       0.57885
Nuclear contribution   :      1.39346       0.26704      -0.91513
                        -----------------------------------------
Total Dipole Moment    :     -0.08649       0.16386      -0.33628
                        -----------------------------------------
Magnitude (a.u.)       :      0.38395
Magnitude (Debye)      :      0.97592

                             ****ORCA TERMINATED NORMALLY****
TOTAL RUN TIME: 0 days 0 hours 17 minutes 54 seconds 418 msec
