                         Program Version 3.0.3 - RELEASE   -
|  1> ! RI-MP2 RIJK def2-TZVP def2-TZVP/C def2-TZVP/JK TIGHTSCF
|  2> % maxcore 2000
|  3> % mp2 density relaxed end
|  4> *xyz 0 1
|  5>  O       -0.0832407927     1.3562193899     0.3354016671
|  6>  C        0.0158311340    -0.0314454572     0.0583751055
|  7>  C       -1.3978448093    -0.5991441889     0.0497925531
|  8>  C       -1.4176378802    -2.1044953725    -0.2210708607
|  9>  O       -0.7640353304    -2.8677544964     0.7997811619
| 10>  C       -1.7668090225    -3.3539870692     1.6493589611
| 11>  O       -2.9557525100    -3.4724773400     0.8690849147
| 12>  C       -2.8231415064    -2.6774115120    -0.2322183452
| 13>  N       -3.7029988424    -2.4530646341    -1.1042756371
| 14>  H        0.8065961977     1.7175249030     0.3816379457
| 15>  H        0.4910670712    -0.2127955951    -0.9202713039
| 16>  H        0.6164342782    -0.5542944510     0.8171055880
| 17>  H       -1.8773258239    -0.3820445444     1.0115019944
| 18>  H       -1.9935682477    -0.1053293232    -0.7246082626
| 19>  H       -0.9129733187    -2.3261639288    -1.1665250042
| 20>  H       -1.4818006214    -4.3421441020     2.0211121656
| 21>  H       -1.9660277846    -2.6716808982     2.4905344020
| 22>  H       -4.5750820608    -2.9350566197    -0.8826870752
| 23> *
| 24>
| 25>                          ****END OF INPUT****

CARTESIAN COORDINATES (ANGSTROEM)
---------------------------------
  O     -0.083241    1.356219    0.335402
  C      0.015831   -0.031445    0.058375
  C     -1.397845   -0.599144    0.049793
  C     -1.417638   -2.104495   -0.221071
  O     -0.764035   -2.867754    0.799781
  C     -1.766809   -3.353987    1.649359
  O     -2.955753   -3.472477    0.869085
  C     -2.823142   -2.677412   -0.232218
  N     -3.702999   -2.453065   -1.104276
  H      0.806596    1.717525    0.381638
  H      0.491067   -0.212796   -0.920271
  H      0.616434   -0.554294    0.817106
  H     -1.877326   -0.382045    1.011502
  H     -1.993568   -0.105329   -0.724608
  H     -0.912973   -2.326164   -1.166525
  H     -1.481801   -4.342144    2.021112
  H     -1.966028   -2.671681    2.490534
  H     -4.575082   -2.935057   -0.882687

 Total Charge           Charge          ....    0
 Multiplicity           Mult            ....    1
 Number of Electrons    NEL             ....   70
 Basis Dimension        Dim             ....  333

ORBITAL ENERGIES
----------------

  NO   OCC          E(Eh)            E(eV)
   0   2.0000     -20.609682      -560.8180
   1   2.0000     -20.586874      -560.1973
   2   2.0000     -20.561334      -559.5023
   3   2.0000     -15.542128      -422.9228
   4   2.0000     -11.355887      -309.0094
   5   2.0000     -11.347011      -308.7679
   6   2.0000     -11.308834      -307.7290
   7   2.0000     -11.282742      -307.0190
   8   2.0000     -11.234715      -305.7121
   9   2.0000      -1.481199       -40.3055
  10   2.0000      -1.374925       -37.4136
  11   2.0000      -1.365562       -37.1588
  12   2.0000      -1.209105       -32.9014
  13   2.0000      -1.071398       -29.1542
  14   2.0000      -0.979373       -26.6501
  15   2.0000      -0.909004       -24.7353
  16   2.0000      -0.829963       -22.5844
  17   2.0000      -0.806614       -21.9491
  18   2.0000      -0.733840       -19.9688
  19   2.0000      -0.720893       -19.6165
  20   2.0000      -0.697721       -18.9860
  21   2.0000      -0.680860       -18.5271
  22   2.0000      -0.657444       -17.8900
  23   2.0000      -0.607026       -16.5180
  24   2.0000      -0.597883       -16.2692
  25   2.0000      -0.596894       -16.2423
  26   2.0000      -0.570132       -15.5141
  27   2.0000      -0.546001       -14.8574
  28   2.0000      -0.540480       -14.7072
  29   2.0000      -0.524150       -14.2628
  30   2.0000      -0.490909       -13.3583
  31   2.0000      -0.451334       -12.2814
  32   2.0000      -0.449040       -12.2190
  33   2.0000      -0.439550       -11.9608
  34   2.0000      -0.409620       -11.1463
  35   0.0000       0.131895         3.5890
  36   0.0000       0.143720         3.9108
  37   0.0000       0.159852         4.3498
  38   0.0000       0.172976         4.7069
  39   0.0000       0.179160         4.8752

MULLIKEN ATOMIC CHARGES
-----------------------
   0 O :   -0.462603
   1 C :   -0.072950
   2 C :   -0.212171
   3 C :    0.137313
   4 O :   -0.326750
   5 C :    0.109595
   6 O :   -0.260617
   7 C :    0.100456
   8 N :   -0.379199
   9 H :    0.317642
  10 H :    0.091268
  11 H :    0.112642
  12 H :    0.112820
  13 H :    0.144154
  14 H :    0.127463
  15 H :    0.131364
  16 H :    0.100088
  17 H :    0.229486
Sum of atomic charges:   -0.0000000

LOEWDIN ATOMIC CHARGES
----------------------
   0 O :   -0.049041
   1 C :   -0.349825
   2 C :   -0.238983
   3 C :   -0.264743
   4 O :    0.176852
   5 C :   -0.339369
   6 O :    0.233604
   7 C :   -0.393176
   8 N :   -0.047895
   9 H :    0.173296
  10 H :    0.116075
  11 H :    0.118388
  12 H :    0.145802
  13 H :    0.155800
  14 H :    0.159053
  15 H :    0.121445
  16 H :    0.111038
  17 H :    0.171678

  Mayer bond orders larger than 0.1
B(  0-O ,  1-C ) :   1.0239 B(  0-O ,  9-H ) :   0.8482 B(  1-C ,  2-C ) :   0.9338
B(  1-C , 10-H ) :   0.9284 B(  1-C , 11-H ) :   0.9324 B(  2-C ,  3-C ) :   0.9353
B(  2-C , 12-H ) :   0.9042 B(  2-C , 13-H ) :   0.9190 B(  3-C ,  4-O ) :   0.8760
B(  3-C ,  7-C ) :   0.9011 B(  3-C , 14-H ) :   0.9027 B(  4-O ,  5-C ) :   0.9819
B(  5-C ,  6-O ) :   0.9102 B(  5-C , 15-H ) :   0.9274 B(  5-C , 16-H ) :   0.9210
B(  6-O ,  7-C ) :   1.0838 B(  7-C ,  8-N ) :   2.0531 B(  8-N , 17-H ) :   0.8519

MP2 TOTAL ENERGY:     -475.480563908 Eh
FINAL SINGLE POINT ENERGY      -475.480563908060

DIPOLE MOMENT
-------------
                                X             Y             Z
Electronic contribution:     -2.73104      -4.06108       0.04695
Nuclear contribution   :      3.46460       3.81255       0.57673
                        -----------------------------------------
Total Dipole Moment    :      0.73356      -0.24853       0.62368
                        -----------------------------------------
Magnitude (a.u.)       :      0.99441
Magnitude (Debye)      :      2.52759

                             ****ORCA TERMINATED NORMALLY****
TOTAL RUN TIME: 0 days 0 hours 14 minutes 55 seconds 498 msec
