                         Program Version 3.0.3 - RELEASE   -
|  1> ! RI-MP2 RIJK def2-TZVP def2-TZVP/C def2-TZVP/JK TIGHTSCF
|  2> % maxcore 2000
|  3> % mp2 density relaxed end
|  4> *xyz 0 1
|  5>  C        0.4893735807     1.3370007639     0.0895138901
|  6>  O        0.5307021885    -0.0616657482    -0.0676764467
|  7>  C       -0.1213785569    -0.5015265470    -1.2389972329
|  8>  C        0.0647776824    -2.0091558078    -1.2998230544
|  9>  O       -0.7545409500    -2.6635909042    -2.3199333587
| 10>  C        0.3825854106    -3.4329696111    -2.7519656082
| 11>  C        1.3586371062    -2.5094658531    -3.3829353791
| 12>  O        0.9449879709    -1.3895069562    -4.1022499328
| 13>  C        1.3361835822    -2.6318002605    -1.8651387050
| 14>  H        0.9812548067     1.8562183272    -0.7476241258
| 15>  H       -0.5451615098     1.7081955315     0.1630535889
| 16>  H        1.0176194930     1.5775813006     1.0152445284
| 17>  H       -1.2018191059    -0.2756899421    -1.2005335998
| 18>  H        0.2995574292    -0.0184880788    -2.1307803351
| 19>  H       -0.1841962236    -2.4322283445    -0.3192237903
| 20>  H        0.2298972149    -4.4900683218    -2.9383783434
| 21>  H        2.2279510459    -2.9824761548    -3.8319630633
| 22>  H       -0.0179085978    -1.3638699339    -4.0177888647
| 23>  H        2.1932730929    -2.9447760091    -1.2847599972
| 24> *
| 25>
| 26>                          ****END OF INPUT****

CARTESIAN COORDINATES (ANGSTROEM)
---------------------------------
  C      0.489374    1.337001    0.089514
  O      0.530702   -0.061666   -0.067676
  C     -0.121379   -0.501527   -1.238997
  C      0.064778   -2.009156   -1.299823
  O     -0.754541   -2.663591   -2.319933
  C      0.382585   -3.432970   -2.751966
  C      1.358637   -2.509466   -3.382935
  O      0.944988   -1.389507   -4.102250
  C      1.336184   -2.631800   -1.865139
  H      0.981255    1.856218   -0.747624
  H     -0.545162    1.708196    0.163054
  H      1.017619    1.577581    1.015245
  H     -1.201819   -0.275690   -1.200534
  H      0.299557   -0.018488   -2.130780
  H     -0.184196   -2.432228   -0.319224
  H      0.229897   -4.490068   -2.938378
  H      2.227951   -2.982476   -3.831963
  H     -0.017909   -1.363870   -4.017789
  H      2.193273   -2.944776   -1.284760

 Total Charge           Charge          ....    0
 Multiplicity           Mult            ....    1
 Number of Electrons    NEL             ....   70
 Basis Dimension        Dim             ....  339

ORBITAL ENERGIES
----------------

  NO   OCC          E(Eh)            E(eV)
   0   2.0000     -20.569032      -559.7118
   1   2.0000     -20.563438      -559.5596
   2   2.0000     -20.561503      -559.5069
   3   2.0000     -11.295869      -307.3762
   4   2.0000     -11.295678      -307.3710
   5   2.0000     -11.295082      -307.3548
   6   2.0000     -11.276541      -306.8503
   7   2.0000     -11.274016      -306.7816
   8   2.0000     -11.242767      -305.9312
   9   2.0000      -1.413771       -38.4707
  10   2.0000      -1.381717       -37.5984
  11   2.0000      -1.363470       -37.1019
  12   2.0000      -1.112720       -30.2786
  13   2.0000      -1.026082       -27.9211
  14   2.0000      -0.923906       -25.1407
  15   2.0000      -0.867058       -23.5939
  16   2.0000      -0.823312       -22.4035
  17   2.0000      -0.763980       -20.7889
  18   2.0000      -0.732349       -19.9282
  19   2.0000      -0.696899       -18.9636
  20   2.0000      -0.671361       -18.2687
  21   2.0000      -0.659681       -17.9508
  22   2.0000      -0.646683       -17.5971
  23   2.0000      -0.610837       -16.6217
  24   2.0000      -0.588103       -16.0031
  25   2.0000      -0.581378       -15.8201
  26   2.0000      -0.561751       -15.2860
  27   2.0000      -0.552989       -15.0476
  28   2.0000      -0.525943       -14.3116
  29   2.0000      -0.495089       -13.4720
  30   2.0000      -0.487192       -13.2572
  31   2.0000      -0.474346       -12.9076
  32   2.0000      -0.428950       -11.6723
  33   2.0000      -0.398909       -10.8549
  34   2.0000      -0.385348       -10.4859
  35   0.0000       0.147343         4.0094
  36   0.0000       0.155096         4.2204
  37   0.0000       0.162876         4.4321
  38   0.0000       0.173281         4.7152
  39   0.0000       0.185545         5.0489

MULLIKEN ATOMIC CHARGES
-----------------------
   0 C :   -0.218831
   1 O :   -0.314158
   2 C :   -0.061668
   3 C :    0.096862
   4 O :   -0.354419
   5 C :    0.030074
   6 C :    0.057522
   7 O :   -0.469454
   8 C :   -0.200838
   9 H :    0.117956
  10 H :    0.112540
  11 H :    0.139416
  12 H :    0.103248
  13 H :    0.114699
  14 H :    0.108209
  15 H :    0.132966
  16 H :    0.125357
  17 H :    0.335114
  18 H :    0.145406
Sum of atomic charges:   -0.0000000

LOEWDIN ATOMIC CHARGES
----------------------
   0 C :   -0.358067
   1 O :    0.137552
   2 C :   -0.312037
   3 C :   -0.249177
   4 O :    0.153634
   5 C :   -0.230715
   6 C :   -0.308888
   7 O :    0.001099
   8 C :   -0.157123
   9 H :    0.103413
  10 H :    0.101994
  11 H :    0.113729
  12 H :    0.124578
  13 H :    0.126984
  14 H :    0.149468
  15 H :    0.129710
  16 H :    0.150945
  17 H :    0.182864
  18 H :    0.140036

  Mayer bond orders larger than 0.1
B(  0-C ,  1-O ) :   0.9183 B(  0-C ,  9-H ) :   0.9372 B(  0-C , 10-H ) :   0.9378
B(  0-C , 11-H ) :   0.9387 B(  1-O ,  2-C ) :   0.9389 B(  2-C ,  3-C ) :   0.9458
B(  2-C , 12-H ) :   0.9160 B(  2-C , 13-H ) :   0.9105 B(  3-C ,  4-O ) :   0.8917
B(  3-C ,  8-C ) :   0.9294 B(  3-C , 14-H ) :   0.9107 B(  4-O ,  5-C ) :   0.9304
B(  5-C ,  6-C ) :   0.9099 B(  5-C ,  8-C ) :   0.8574 B(  5-C , 15-H ) :   0.9175
B(  6-C ,  7-O ) :   0.9752 B(  6-C ,  8-C ) :   0.8615 B(  6-C , 16-H ) :   0.9462
B(  7-O , 17-H ) :   0.8186 B(  8-C , 18-H ) :   0.9091

MP2 TOTAL ENERGY:     -459.355734793 Eh
FINAL SINGLE POINT ENERGY      -459.355734793369

DIPOLE MOMENT
-------------
                                X             Y             Z
Electronic contribution:     -0.37456      -5.15649      -3.00528
Nuclear contribution   :      0.44758       5.08464       3.28398
                        -----------------------------------------
Total Dipole Moment    :      0.07302      -0.07186       0.27870
                        -----------------------------------------
Magnitude (a.u.)       :      0.29693
Magnitude (Debye)      :      0.75475

                             ****ORCA TERMINATED NORMALLY****
TOTAL RUN TIME: 0 days 0 hours 14 minutes 31 seconds 44 msec
