                         Program Version 3.0.3 - RELEASE   -
|  1> ! RI-MP2 RIJK def2-TZVP def2-TZVP/C def2-TZVP/JK TIGHTSCF
|  2> % maxcore 2000
|  3> % mp2 density relaxed end
|  4> *xyz 0 1
|  5>  C       -0.3299911319     1.4798270333    -0.0072508888
|  6>  C        0.1113903572     0.0124141984    -0.0739567456
|  7>  C        1.0744887058    -0.2528971404    -1.2093770250
|  8>  C        1.7988418817    -1.3711030469    -1.2620909066
|  9>  C        1.6741829326    -2.4312666284    -0.1966191325
| 10>  C        1.4808345889    -1.8385646497     1.2098894135
| 11>  C        2.7314752263    -1.1355799039     1.8179131724
| 12>  C        2.0040768040     0.2334820359     1.7571985909
| 13>  C        0.7071058613    -0.4752278985     1.2597119066
| 14>  H        0.5198907907     2.1423037086     0.1883103712
| 15>  H       -0.7858502301     1.7952260449    -0.9518174444
| 16>  H       -1.0654923882     1.6356457104     0.7888047119
| 17>  H       -0.7916281562    -0.5934604698    -0.2562351933
| 18>  H        1.1518204297     0.4935512261    -1.9968168462
| 19>  H        2.4721228851    -1.5533636534    -2.0954742461
| 20>  H        0.8148944004    -3.0763411351    -0.4355715234
| 21>  H        2.5500747585    -3.0909506725    -0.1989682585
| 22>  H        1.0564057304    -2.6045948521     1.8649880673
| 23>  H        2.9780679198    -1.4703979708     2.8287365052
| 24>  H        3.6354165188    -1.2066340879     1.2059467118
| 25>  H        1.9109750124     0.7647732326     2.7074389507
| 26>  H        2.4345579610     0.9191193302     1.0227203948
| 27>  H       -0.0791218682    -0.4736205912     2.0211649041
| 28> *
| 29>
| 30>                          ****END OF INPUT****

CARTESIAN COORDINATES (ANGSTROEM)
---------------------------------
  C     -0.329991    1.479827   -0.007251
  C      0.111390    0.012414   -0.073957
  C      1.074489   -0.252897   -1.209377
  C      1.798842   -1.371103   -1.262091
  C      1.674183   -2.431267   -0.196619
  C      1.480835   -1.838565    1.209889
  C      2.731475   -1.135580    1.817913
  C      2.004077    0.233482    1.757199
  C      0.707106   -0.475228    1.259712
  H      0.519891    2.142304    0.188310
  H     -0.785850    1.795226   -0.951817
  H     -1.065492    1.635646    0.788805
  H     -0.791628   -0.593460   -0.256235
  H      1.151820    0.493551   -1.996817
  H      2.472123   -1.553364   -2.095474
  H      0.814894   -3.076341   -0.435572
  H      2.550075   -3.090951   -0.198968
  H      1.056406   -2.604595    1.864988
  H      2.978068   -1.470398    2.828737
  H      3.635417   -1.206634    1.205947
  H      1.910975    0.764773    2.707439
  H      2.434558    0.919119    1.022720
  H     -0.079122   -0.473621    2.021165

 Total Charge           Charge          ....    0
 Multiplicity           Mult            ....    1
 Number of Electrons    NEL             ....   68
 Basis Dimension        Dim             ....  363

ORBITAL ENERGIES
----------------

  NO   OCC          E(Eh)            E(eV)
   0   2.0000     -11.225242      -305.4544
   1   2.0000     -11.219874      -305.3083
   2   2.0000     -11.219282      -305.2922
   3   2.0000     -11.218247      -305.2640
   4   2.0000     -11.217872      -305.2538
   5   2.0000     -11.215262      -305.1828
   6   2.0000     -11.211209      -305.0725
   7   2.0000     -11.209909      -305.0371
   8   2.0000     -11.208803      -305.0070
   9   2.0000      -1.145152       -31.1612
  10   2.0000      -1.062464       -28.9111
  11   2.0000      -1.030126       -28.0312
  12   2.0000      -0.942496       -25.6466
  13   2.0000      -0.900180       -24.4951
  14   2.0000      -0.858846       -23.3704
  15   2.0000      -0.800215       -21.7750
  16   2.0000      -0.756366       -20.5818
  17   2.0000      -0.671583       -18.2747
  18   2.0000      -0.660706       -17.9787
  19   2.0000      -0.634115       -17.2552
  20   2.0000      -0.622927       -16.9507
  21   2.0000      -0.590670       -16.0729
  22   2.0000      -0.565368       -15.3845
  23   2.0000      -0.557818       -15.1790
  24   2.0000      -0.525300       -14.2942
  25   2.0000      -0.514143       -13.9905
  26   2.0000      -0.507592       -13.8123
  27   2.0000      -0.504856       -13.7378
  28   2.0000      -0.478493       -13.0205
  29   2.0000      -0.460590       -12.5333
  30   2.0000      -0.422455       -11.4956
  31   2.0000      -0.409469       -11.1422
  32   2.0000      -0.407422       -11.0865
  33   2.0000      -0.340592        -9.2680
  34   0.0000       0.135981         3.7002
  35   0.0000       0.145219         3.9516
  36   0.0000       0.158252         4.3063
  37   0.0000       0.164176         4.4675
  38   0.0000       0.168285         4.5793

MULLIKEN ATOMIC CHARGES
-----------------------
   0 C :   -0.412191
   1 C :    0.016375
   2 C :   -0.243238
   3 C :   -0.169494
   4 C :   -0.211413
   5 C :   -0.037390
   6 C :   -0.223632
   7 C :   -0.268562
   8 C :   -0.028666
   9 H :    0.129983
  10 H :    0.134431
  11 H :    0.130559
  12 H :    0.084706
  13 H :    0.115358
  14 H :    0.119213
  15 H :    0.115244
  16 H :    0.124825
  17 H :    0.097198
  18 H :    0.113733
  19 H :    0.097491
  20 H :    0.110502
  21 H :    0.109745
  22 H :    0.095222
Sum of atomic charges:   -0.0000000

LOEWDIN ATOMIC CHARGES
----------------------
   0 C :   -0.288356
   1 C :   -0.251413
   2 C :   -0.151167
   3 C :   -0.168366
   4 C :   -0.235189
   5 C :   -0.194718
   6 C :   -0.218389
   7 C :   -0.219037
   8 C :   -0.177791
   9 H :    0.124008
  10 H :    0.123292
  11 H :    0.123563
  12 H :    0.161996
  13 H :    0.142554
  14 H :    0.139125
  15 H :    0.147968
  16 H :    0.142736
  17 H :    0.140359
  18 H :    0.127572
  19 H :    0.129322
  20 H :    0.124562
  21 H :    0.132683
  22 H :    0.144687

  Mayer bond orders larger than 0.1
B(  0-C ,  1-C ) :   0.9048 B(  0-C ,  9-H ) :   0.9333 B(  0-C , 10-H ) :   0.9404
B(  0-C , 11-H ) :   0.9422 B(  1-C ,  2-C ) :   0.9226 B(  1-C ,  8-C ) :   0.9329
B(  1-C , 12-H ) :   0.8930 B(  2-C ,  3-C ) :   1.7679 B(  2-C , 13-H ) :   0.9375
B(  3-C ,  4-C ) :   0.9542 B(  3-C , 14-H ) :   0.9346 B(  4-C ,  5-C ) :   0.9147
B(  4-C , 15-H ) :   0.9061 B(  4-C , 16-H ) :   0.9332 B(  5-C ,  6-C ) :   0.9303
B(  5-C ,  8-C ) :   0.9297 B(  5-C , 17-H ) :   0.9178 B(  6-C ,  7-C ) :   0.9827
B(  6-C , 18-H ) :   0.9195 B(  6-C , 19-H ) :   0.9070 B(  7-C ,  8-C ) :   0.9375
B(  7-C , 20-H ) :   0.9227 B(  7-C , 21-H ) :   0.9082 B(  8-C , 22-H ) :   0.9144

MP2 TOTAL ENERGY:     -350.510403704 Eh
FINAL SINGLE POINT ENERGY      -350.510403703704

DIPOLE MOMENT
-------------
                                X             Y             Z
Electronic contribution:      0.48689      -2.30177      -1.22084
Nuclear contribution   :     -0.58222       2.21625       1.30038
                        -----------------------------------------
Total Dipole Moment    :     -0.09533      -0.08553       0.07954
                        -----------------------------------------
Magnitude (a.u.)       :      0.15077
Magnitude (Debye)      :      0.38322

                             ****ORCA TERMINATED NORMALLY****
TOTAL RUN TIME: 0 days 0 hours 21 minutes 48 seconds 115 msec
