                         Program Version 3.0.3 - RELEASE   -
|  1> ! RI-MP2 RIJK def2-TZVP def2-TZVP/C def2-TZVP/JK TIGHTSCF
|  2> % maxcore 2000
|  3> % mp2 density relaxed end
|  4> *xyz 0 1
|  5>  C        0.5753670370     1.4404371724    -0.1067976116
|  6>  C        0.1014435229     0.0052826040     0.0074465738
|  7>  C       -0.4063243299    -0.5851344145    -1.1103445269
|  8>  N       -0.8748219209    -1.8334252524    -1.3885646064
|  9>  C       -1.1777969122    -2.9046735365    -0.4568847067
| 10>  C       -0.1294449455    -3.0686074532     0.6403759135
| 11>  C       -0.1857348169    -1.9799170122     1.7131963500
| 12>  C        0.2881065123    -0.5730243253     1.3424567526
| 13>  O        0.8198312071     0.0928596970     2.2221971394
| 14>  H        1.6381576340     1.5263638456     0.1416658718
| 15>  H        0.4222758822     1.8328984010    -1.1164535811
| 16>  H        0.0471370529     2.0885727578     0.6001344050
| 17>  H       -0.4250854652     0.0357602078    -2.0038721752
| 18>  H       -1.2833572965    -1.9344197884    -2.3018904803
| 19>  H       -2.1648414335    -2.7513266383     0.0098453736
| 20>  H       -1.2443340833    -3.8247101896    -1.0468811219
| 21>  H       -0.3099775506    -4.0362414191     1.1214099360
| 22>  H        0.8679717349    -3.1222044856     0.1890265122
| 23>  H       -1.2188256897    -1.8869880588     2.0772282708
| 24>  H        0.4145637209    -2.2662668815     2.5806877215
| 25> *
| 26>
| 27>                          ****END OF INPUT****

CARTESIAN COORDINATES (ANGSTROEM)
---------------------------------
  C      0.575367    1.440437   -0.106798
  C      0.101444    0.005283    0.007447
  C     -0.406324   -0.585134   -1.110345
  N     -0.874822   -1.833425   -1.388565
  C     -1.177797   -2.904674   -0.456885
  C     -0.129445   -3.068607    0.640376
  C     -0.185735   -1.979917    1.713196
  C      0.288107   -0.573024    1.342457
  O      0.819831    0.092860    2.222197
  H      1.638158    1.526364    0.141666
  H      0.422276    1.832898   -1.116454
  H      0.047137    2.088573    0.600134
  H     -0.425085    0.035760   -2.003872
  H     -1.283357   -1.934420   -2.301890
  H     -2.164841   -2.751327    0.009845
  H     -1.244334   -3.824710   -1.046881
  H     -0.309978   -4.036241    1.121410
  H      0.867972   -3.122204    0.189027
  H     -1.218826   -1.886988    2.077228
  H      0.414564   -2.266267    2.580688

 Total Charge           Charge          ....    0
 Multiplicity           Mult            ....    1
 Number of Electrons    NEL             ....   68
 Basis Dimension        Dim             ....  345

ORBITAL ENERGIES
----------------

  NO   OCC          E(Eh)            E(eV)
   0   2.0000     -20.513214      -558.1929
   1   2.0000     -15.589249      -424.2050
   2   2.0000     -11.309599      -307.7498
   3   2.0000     -11.296079      -307.3819
   4   2.0000     -11.277626      -306.8798
   5   2.0000     -11.238257      -305.8085
   6   2.0000     -11.228758      -305.5500
   7   2.0000     -11.214515      -305.1625
   8   2.0000     -11.203964      -304.8754
   9   2.0000      -1.356484       -36.9118
  10   2.0000      -1.261711       -34.3329
  11   2.0000      -1.076644       -29.2970
  12   2.0000      -1.067569       -29.0500
  13   2.0000      -0.966523       -26.3004
  14   2.0000      -0.895120       -24.3574
  15   2.0000      -0.874059       -23.7844
  16   2.0000      -0.794866       -21.6294
  17   2.0000      -0.730640       -19.8817
  18   2.0000      -0.701284       -19.0829
  19   2.0000      -0.678421       -18.4608
  20   2.0000      -0.614225       -16.7139
  21   2.0000      -0.609988       -16.5986
  22   2.0000      -0.598410       -16.2836
  23   2.0000      -0.590746       -16.0750
  24   2.0000      -0.565044       -15.3756
  25   2.0000      -0.532651       -14.4942
  26   2.0000      -0.525955       -14.3120
  27   2.0000      -0.519929       -14.1480
  28   2.0000      -0.513357       -13.9692
  29   2.0000      -0.481694       -13.1076
  30   2.0000      -0.469295       -12.7702
  31   2.0000      -0.466683       -12.6991
  32   2.0000      -0.394151       -10.7254
  33   2.0000      -0.306523        -8.3409
  34   0.0000       0.106760         2.9051
  35   0.0000       0.116813         3.1786
  36   0.0000       0.149526         4.0688
  37   0.0000       0.163157         4.4397
  38   0.0000       0.172027         4.6811

MULLIKEN ATOMIC CHARGES
-----------------------
   0 C :   -0.376193
   1 C :   -0.062475
   2 C :   -0.016900
   3 N :   -0.307315
   4 C :   -0.140799
   5 C :   -0.221229
   6 C :   -0.202318
   7 C :    0.132359
   8 O :   -0.326284
   9 H :    0.136803
  10 H :    0.108740
  11 H :    0.135718
  12 H :    0.123165
  13 H :    0.238082
  14 H :    0.116777
  15 H :    0.130794
  16 H :    0.131520
  17 H :    0.132568
  18 H :    0.123054
  19 H :    0.143932
Sum of atomic charges:    0.0000000

LOEWDIN ATOMIC CHARGES
----------------------
   0 C :   -0.272428
   1 C :   -0.214077
   2 C :   -0.200561
   3 N :    0.084495
   4 C :   -0.286112
   5 C :   -0.263243
   6 C :   -0.233442
   7 C :   -0.316540
   8 O :    0.120715
   9 H :    0.129526
  10 H :    0.119583
  11 H :    0.129389
  12 H :    0.150514
  13 H :    0.187976
  14 H :    0.131272
  15 H :    0.136307
  16 H :    0.146322
  17 H :    0.145984
  18 H :    0.152013
  19 H :    0.152306

  Mayer bond orders larger than 0.1
B(  0-C ,  1-C ) :   0.9127 B(  0-C ,  9-H ) :   0.9255 B(  0-C , 10-H ) :   0.9414
B(  0-C , 11-H ) :   0.9300 B(  1-C ,  2-C ) :   1.5662 B(  1-C ,  7-C ) :   0.9984
B(  2-C ,  3-N ) :   1.1813 B(  2-C , 12-H ) :   0.9020 B(  3-N ,  4-C ) :   0.9008
B(  3-N , 13-H ) :   0.8791 B(  4-C ,  5-C ) :   0.9219 B(  4-C , 14-H ) :   0.9421
B(  4-C , 15-H ) :   0.9249 B(  5-C ,  6-C ) :   0.8868 B(  5-C , 16-H ) :   0.9287
B(  5-C , 17-H ) :   0.9269 B(  6-C ,  7-C ) :   0.9568 B(  6-C , 18-H ) :   0.9099
B(  6-C , 19-H ) :   0.9303 B(  7-C ,  8-O ) :   1.9670

MP2 TOTAL ENERGY:     -402.484347146 Eh
FINAL SINGLE POINT ENERGY      -402.484347145915

DIPOLE MOMENT
-------------
                                X             Y             Z
Electronic contribution:      0.96983       1.44334       1.63949
Nuclear contribution   :     -1.92071      -2.66216      -3.10421
                        -----------------------------------------
Total Dipole Moment    :     -0.95087      -1.21882      -1.46472
                        -----------------------------------------
Magnitude (a.u.)       :      2.12957
Magnitude (Debye)      :      5.41294

                             ****ORCA TERMINATED NORMALLY****
TOTAL RUN TIME: 0 days 0 hours 20 minutes 26 seconds 16 msec
