                         Program Version 3.0.3 - RELEASE   -
|  1> ! RI-MP2 RIJK def2-TZVP def2-TZVP/C def2-TZVP/JK TIGHTSCF
|  2> % maxcore 2000
|  3> % mp2 density relaxed end
|  4> *xyz 0 1
|  5>  C        0.1533250756     1.5488643933    -0.0840378688
|  6>  C       -0.0317996356     0.0387218326     0.0684722847
|  7>  O        0.5122236747    -0.6382101338    -1.0749841500
|  8>  C        1.4186195076    -1.6546930845    -0.6702070966
|  9>  C        1.5214003148    -1.5217506017     0.8316581556
| 10>  C        0.6856225738    -0.5677785484     1.2376292239
| 11>  C        2.3793901461    -2.3227129402     1.7461927938
| 12>  N        3.1908703323    -3.2380302927     1.1271949270
| 13>  O        2.3491662303    -2.1962459398     2.9569594154
| 14>  H        1.2163137764     1.8045508922    -0.1129490437
| 15>  H       -0.3131848837     1.8880234493    -1.0128790066
| 16>  H       -0.3144054285     2.0795126009     0.7515182837
| 17>  H       -1.1125724969    -0.1778692588     0.1274961509
| 18>  H        1.0407483316    -2.6459789455    -0.9708990339
| 19>  H        2.3839624192    -1.5064099342    -1.1819273158
| 20>  H        0.5367613357    -0.2708465317     2.2674302238
| 21>  H        3.3550872234    -3.2218110289     0.1354143903
| 22>  H        3.8561195331    -3.7243886780     1.7066993562
| 23> *
| 24>
| 25>                          ****END OF INPUT****

CARTESIAN COORDINATES (ANGSTROEM)
---------------------------------
  C      0.153325    1.548864   -0.084038
  C     -0.031800    0.038722    0.068472
  O      0.512224   -0.638210   -1.074984
  C      1.418620   -1.654693   -0.670207
  C      1.521400   -1.521751    0.831658
  C      0.685623   -0.567779    1.237629
  C      2.379390   -2.322713    1.746193
  N      3.190870   -3.238030    1.127195
  O      2.349166   -2.196246    2.956959
  H      1.216314    1.804551   -0.112949
  H     -0.313185    1.888023   -1.012879
  H     -0.314405    2.079513    0.751518
  H     -1.112572   -0.177869    0.127496
  H      1.040748   -2.645979   -0.970899
  H      2.383962   -1.506410   -1.181927
  H      0.536761   -0.270847    2.267430
  H      3.355087   -3.221811    0.135414
  H      3.856120   -3.724389    1.706699

 Total Charge           Charge          ....    0
 Multiplicity           Mult            ....    1
 Number of Electrons    NEL             ....   68
 Basis Dimension        Dim             ....  333

ORBITAL ENERGIES
----------------

  NO   OCC          E(Eh)            E(eV)
   0   2.0000     -20.562317      -559.5291
   1   2.0000     -20.518910      -558.3479
   2   2.0000     -15.589405      -424.2093
   3   2.0000     -11.360752      -309.1418
   4   2.0000     -11.296619      -307.3966
   5   2.0000     -11.295810      -307.3746
   6   2.0000     -11.253524      -306.2240
   7   2.0000     -11.246632      -306.0364
   8   2.0000     -11.224486      -305.4338
   9   2.0000      -1.390009       -37.8241
  10   2.0000      -1.382714       -37.6256
  11   2.0000      -1.216376       -33.0993
  12   2.0000      -1.096993       -29.8507
  13   2.0000      -1.046318       -28.4718
  14   2.0000      -0.931337       -25.3430
  15   2.0000      -0.876785       -23.8585
  16   2.0000      -0.807526       -21.9739
  17   2.0000      -0.763135       -20.7659
  18   2.0000      -0.737559       -20.0700
  19   2.0000      -0.694275       -18.8922
  20   2.0000      -0.668932       -18.2026
  21   2.0000      -0.638115       -17.3640
  22   2.0000      -0.614633       -16.7250
  23   2.0000      -0.601642       -16.3715
  24   2.0000      -0.578389       -15.7388
  25   2.0000      -0.561728       -15.2854
  26   2.0000      -0.549217       -14.9450
  27   2.0000      -0.541493       -14.7348
  28   2.0000      -0.517171       -14.0729
  29   2.0000      -0.495220       -13.4756
  30   2.0000      -0.444404       -12.0928
  31   2.0000      -0.433168       -11.7871
  32   2.0000      -0.421930       -11.4813
  33   2.0000      -0.364909        -9.9297
  34   0.0000       0.098868         2.6903
  35   0.0000       0.120209         3.2710
  36   0.0000       0.145457         3.9581
  37   0.0000       0.168835         4.5942
  38   0.0000       0.180725         4.9178

MULLIKEN ATOMIC CHARGES
-----------------------
   0 C :   -0.386212
   1 C :    0.157915
   2 O :   -0.329580
   3 C :   -0.061728
   4 C :   -0.016256
   5 C :   -0.189282
   6 C :    0.253475
   7 N :   -0.477521
   8 O :   -0.345182
   9 H :    0.126631
  10 H :    0.141865
  11 H :    0.124275
  12 H :    0.097379
  13 H :    0.120635
  14 H :    0.103791
  15 H :    0.161471
  16 H :    0.258230
  17 H :    0.260095
Sum of atomic charges:    0.0000000

LOEWDIN ATOMIC CHARGES
----------------------
   0 C :   -0.286722
   1 C :   -0.310036
   2 O :    0.172455
   3 C :   -0.271010
   4 C :   -0.142325
   5 C :   -0.070092
   6 C :   -0.448657
   7 N :   -0.013916
   8 O :    0.090851
   9 H :    0.125703
  10 H :    0.127991
  11 H :    0.126531
  12 H :    0.145330
  13 H :    0.128461
  14 H :    0.124670
  15 H :    0.155871
  16 H :    0.169700
  17 H :    0.175195

  Mayer bond orders larger than 0.1
B(  0-C ,  1-C ) :   0.9101 B(  0-C ,  9-H ) :   0.9322 B(  0-C , 10-H ) :   0.9351
B(  0-C , 11-H ) :   0.9298 B(  1-C ,  2-O ) :   0.9172 B(  1-C ,  5-C ) :   0.9397
B(  1-C , 12-H ) :   0.9075 B(  2-O ,  3-C ) :   0.9634 B(  3-C ,  4-C ) :   0.9263
B(  3-C , 13-H ) :   0.9197 B(  3-C , 14-H ) :   0.9062 B(  4-C ,  5-C ) :   1.7330
B(  4-C ,  6-C ) :   0.8849 B(  4-C ,  8-O ) :  -0.1103 B(  5-C , 15-H ) :   0.9052
B(  6-C ,  7-N ) :   1.1775 B(  6-C ,  8-O ) :   2.0049 B(  7-N , 16-H ) :   0.8692
B(  7-N , 17-H ) :   0.8607

MP2 TOTAL ENERGY:     -438.400362607 Eh
FINAL SINGLE POINT ENERGY      -438.400362606883

DIPOLE MOMENT
-------------
                                X             Y             Z
Electronic contribution:      1.97692      -4.73087       3.27801
Nuclear contribution   :     -1.60596       4.54676      -4.04428
                        -----------------------------------------
Total Dipole Moment    :      0.37096      -0.18411      -0.76627
                        -----------------------------------------
Magnitude (a.u.)       :      0.87102
Magnitude (Debye)      :      2.21396

                             ****ORCA TERMINATED NORMALLY****
TOTAL RUN TIME: 0 days 0 hours 16 minutes 10 seconds 159 msec
