                         Program Version 3.0.3 - RELEASE   -
|  1> ! RI-MP2 RIJK def2-TZVP def2-TZVP/C def2-TZVP/JK TIGHTSCF
|  2> % maxcore 2000
|  3> % mp2 density relaxed end
|  4> *xyz 0 1
|  5>  O       -0.0047169062     0.0080886137    -0.4687369529
|  6>  C       -0.0366260834     1.1578541491    -0.1731125695
|  7>  C       -1.1176051881     2.1958962221     0.1378493259
|  8>  C       -1.6143406233     2.2332469994     1.6046062735
|  9>  C       -0.4364995177     3.2045111053     1.8858278403
| 10>  N       -0.0459234135     3.2351956915     0.4302867103
| 11>  C        1.0496562169     2.2729435972     0.0608838345
| 12>  C        2.1045056167     2.0148955457     1.0219503763
| 13>  N        2.9231291958     1.7992918457     1.8099982920
| 14>  H       -1.8351815599     2.3934465818    -0.6624064628
| 15>  H       -2.6035359109     2.6807142032     1.7081025093
| 16>  H       -1.6029378014     1.2788916981     2.1336699598
| 17>  H       -0.7265991053     4.1987845719     2.2313171064
| 18>  H        0.3437403696     2.8210917868     2.5487787742
| 19>  H        1.4962658707     2.5686404985    -0.8964327373
| 20> *
| 21>
| 22>                          ****END OF INPUT****

CARTESIAN COORDINATES (ANGSTROEM)
---------------------------------
  O     -0.004717    0.008089   -0.468737
  C     -0.036626    1.157854   -0.173113
  C     -1.117605    2.195896    0.137849
  C     -1.614341    2.233247    1.604606
  C     -0.436500    3.204511    1.885828
  N     -0.045923    3.235196    0.430287
  C      1.049656    2.272944    0.060884
  C      2.104506    2.014896    1.021950
  N      2.923129    1.799292    1.809998
  H     -1.835182    2.393447   -0.662406
  H     -2.603536    2.680714    1.708103
  H     -1.602938    1.278892    2.133670
  H     -0.726599    4.198785    2.231317
  H      0.343740    2.821092    2.548779
  H      1.496266    2.568640   -0.896433

 Total Charge           Charge          ....    0
 Multiplicity           Mult            ....    1
 Number of Electrons    NEL             ....   64
 Basis Dimension        Dim             ....  315

ORBITAL ENERGIES
----------------

  NO   OCC          E(Eh)            E(eV)
   0   2.0000     -20.594734      -560.4112
   1   2.0000     -15.593755      -424.3276
   2   2.0000     -15.591752      -424.2732
   3   2.0000     -11.372848      -309.4709
   4   2.0000     -11.332387      -308.3699
   5   2.0000     -11.301756      -307.5364
   6   2.0000     -11.292108      -307.2739
   7   2.0000     -11.283535      -307.0406
   8   2.0000     -11.264369      -306.5191
   9   2.0000      -1.439998       -39.1843
  10   2.0000      -1.307373       -35.5754
  11   2.0000      -1.234372       -33.5890
  12   2.0000      -1.080001       -29.3883
  13   2.0000      -0.995578       -27.0910
  14   2.0000      -0.957976       -26.0678
  15   2.0000      -0.837082       -22.7782
  16   2.0000      -0.778993       -21.1975
  17   2.0000      -0.733799       -19.9677
  18   2.0000      -0.709145       -19.2968
  19   2.0000      -0.696807       -18.9611
  20   2.0000      -0.650066       -17.6892
  21   2.0000      -0.626470       -17.0471
  22   2.0000      -0.586569       -15.9613
  23   2.0000      -0.576848       -15.6968
  24   2.0000      -0.565272       -15.3818
  25   2.0000      -0.549269       -14.9464
  26   2.0000      -0.517829       -14.0908
  27   2.0000      -0.498099       -13.5540
  28   2.0000      -0.487937       -13.2774
  29   2.0000      -0.476053       -12.9541
  30   2.0000      -0.429512       -11.6876
  31   2.0000      -0.407631       -11.0922
  32   0.0000       0.091788         2.4977
  33   0.0000       0.125839         3.4243
  34   0.0000       0.141657         3.8547
  35   0.0000       0.147980         4.0267
  36   0.0000       0.153629         4.1805

MULLIKEN ATOMIC CHARGES
-----------------------
   0 O :   -0.201033
   1 C :    0.103334
   2 C :    0.016563
   3 C :   -0.282724
   4 C :   -0.162806
   5 N :   -0.171050
   6 C :    0.079553
   7 C :   -0.214438
   8 N :   -0.042074
   9 H :    0.144277
  10 H :    0.143066
  11 H :    0.142436
  12 H :    0.134336
  13 H :    0.143474
  14 H :    0.167086
Sum of atomic charges:    0.0000000

LOEWDIN ATOMIC CHARGES
----------------------
   0 O :    0.207365
   1 C :   -0.263146
   2 C :   -0.177504
   3 C :   -0.214957
   4 C :   -0.230914
   5 N :    0.124549
   6 C :   -0.217775
   7 C :   -0.175828
   8 N :    0.082285
   9 H :    0.145367
  10 H :    0.138831
  11 H :    0.138578
  12 H :    0.129052
  13 H :    0.133400
  14 H :    0.180698

  Mayer bond orders larger than 0.1
B(  0-O ,  1-C ) :   2.0909 B(  1-C ,  2-C ) :   0.9099 B(  1-C ,  6-C ) :   0.8526
B(  2-C ,  3-C ) :   0.9197 B(  2-C ,  5-N ) :   0.9434 B(  2-C ,  6-C ) :  -0.1047
B(  2-C ,  9-H ) :   0.8817 B(  3-C ,  4-C ) :   0.9472 B(  3-C , 10-H ) :   0.9231
B(  3-C , 11-H ) :   0.9158 B(  4-C ,  5-N ) :   0.8760 B(  4-C , 12-H ) :   0.9258
B(  4-C , 13-H ) :   0.9177 B(  5-N ,  6-C ) :   0.9604 B(  6-C ,  7-C ) :   0.9491
B(  6-C , 14-H ) :   0.8631 B(  7-C ,  8-N ) :   2.8184

MP2 TOTAL ENERGY:     -416.067447576 Eh
FINAL SINGLE POINT ENERGY      -416.067447576429

DIPOLE MOMENT
-------------
                                X             Y             Z
Electronic contribution:      4.85121      -3.06342      -2.89647
Nuclear contribution   :     -6.21203       3.69456       2.67258
                        -----------------------------------------
Total Dipole Moment    :     -1.36082       0.63114      -0.22388
                        -----------------------------------------
Magnitude (a.u.)       :      1.51667
Magnitude (Debye)      :      3.85507

                             ****ORCA TERMINATED NORMALLY****
TOTAL RUN TIME: 0 days 0 hours 15 minutes 37 seconds 71 msec
