                         Program Version 3.0.3 - RELEASE   -
|  1> ! RI-MP2 RIJK def2-TZVP def2-TZVP/C def2-TZVP/JK TIGHTSCF
|  2> % maxcore 2000
|  3> % mp2 density relaxed end
|  4> *xyz 0 1
|  5>  C        0.7055721027    -0.4937316828     1.2834896774
|  6>  C        0.1114545702     0.0292631150    -0.0274608688
|  7>  C        0.8351247981    -0.4205545093    -1.3161639119
|  8>  C        0.8109831005    -1.9563203501    -1.4725634715
|  9>  C        1.5769988284    -2.5009497246    -2.6817124944
| 10>  C        0.2356494722     0.3167329451    -2.5556510001
| 11>  O        1.3420610127     1.0660518835    -3.1111489114
| 12>  C        2.3820030194     0.8291868925    -2.2777365581
| 13>  N        2.2402416807     0.0576394135    -1.2848036071
| 14>  H        0.5749528693    -1.5740804711     1.3943020831
| 15>  H        1.7748689185    -0.2738335401     1.3349449613
| 16>  H        0.2148106402    -0.0179495094     2.1382111992
| 17>  H       -0.9444345020    -0.2640872513    -0.1058134680
| 18>  H        0.1253990994     1.1261306233    -0.0111543944
| 19>  H        1.2327216167    -2.3994502543    -0.5657425815
| 20>  H       -0.2391247869    -2.2752192354    -1.5177678830
| 21>  H        1.1857981124    -2.1208639943    -3.6315105841
| 22>  H        2.6345174098    -2.2303780411    -2.6231350081
| 23>  H        1.5080395232    -3.5924042520    -2.7157426152
| 24>  H       -0.1438198560    -0.3545963291    -3.3299213635
| 25>  H       -0.5520119301     1.0266084991    -2.2856310329
| 26>  H        3.2952876205     1.3481539029    -2.5494434370
| 27> *
| 28>
| 29>                          ****END OF INPUT****

CARTESIAN COORDINATES (ANGSTROEM)
---------------------------------
  C      0.705572   -0.493732    1.283490
  C      0.111455    0.029263   -0.027461
  C      0.835125   -0.420555   -1.316164
  C      0.810983   -1.956320   -1.472563
  C      1.576999   -2.500950   -2.681712
  C      0.235649    0.316733   -2.555651
  O      1.342061    1.066052   -3.111149
  C      2.382003    0.829187   -2.277737
  N      2.240242    0.057639   -1.284804
  H      0.574953   -1.574080    1.394302
  H      1.774869   -0.273834    1.334945
  H      0.214811   -0.017950    2.138211
  H     -0.944435   -0.264087   -0.105813
  H      0.125399    1.126131   -0.011154
  H      1.232722   -2.399450   -0.565743
  H     -0.239125   -2.275219   -1.517768
  H      1.185798   -2.120864   -3.631511
  H      2.634517   -2.230378   -2.623135
  H      1.508040   -3.592404   -2.715743
  H     -0.143820   -0.354596   -3.329921
  H     -0.552012    1.026608   -2.285631
  H      3.295288    1.348154   -2.549443

 Total Charge           Charge          ....    0
 Multiplicity           Mult            ....    1
 Number of Electrons    NEL             ....   70
 Basis Dimension        Dim             ....  357

ORBITAL ENERGIES
----------------

  NO   OCC          E(Eh)            E(eV)
   0   2.0000     -20.592816      -560.3590
   1   2.0000     -15.541796      -422.9138
   2   2.0000     -11.327962      -308.2495
   3   2.0000     -11.286012      -307.1080
   4   2.0000     -11.268993      -306.6449
   5   2.0000     -11.223626      -305.4104
   6   2.0000     -11.222477      -305.3791
   7   2.0000     -11.211790      -305.0883
   8   2.0000     -11.208089      -304.9876
   9   2.0000      -1.434755       -39.0417
  10   2.0000      -1.214607       -33.0511
  11   2.0000      -1.083201       -29.4754
  12   2.0000      -1.016215       -27.6526
  13   2.0000      -0.980211       -26.6729
  14   2.0000      -0.885853       -24.1053
  15   2.0000      -0.842127       -22.9154
  16   2.0000      -0.812184       -22.1006
  17   2.0000      -0.759309       -20.6618
  18   2.0000      -0.697518       -18.9804
  19   2.0000      -0.677189       -18.4273
  20   2.0000      -0.618572       -16.8322
  21   2.0000      -0.610004       -16.5990
  22   2.0000      -0.594771       -16.1845
  23   2.0000      -0.592461       -16.1217
  24   2.0000      -0.562256       -15.2998
  25   2.0000      -0.551353       -15.0031
  26   2.0000      -0.524017       -14.2592
  27   2.0000      -0.517221       -14.0743
  28   2.0000      -0.507646       -13.8137
  29   2.0000      -0.494476       -13.4554
  30   2.0000      -0.486221       -13.2308
  31   2.0000      -0.467994       -12.7348
  32   2.0000      -0.455720       -12.4008
  33   2.0000      -0.425240       -11.5714
  34   2.0000      -0.377319       -10.2674
  35   0.0000       0.137687         3.7467
  36   0.0000       0.156889         4.2692
  37   0.0000       0.163897         4.4599
  38   0.0000       0.168884         4.5956
  39   0.0000       0.174230         4.7410

MULLIKEN ATOMIC CHARGES
-----------------------
   0 C :   -0.431591
   1 C :   -0.208825
   2 C :    0.278666
   3 C :   -0.276731
   4 C :   -0.408611
   5 C :   -0.098040
   6 O :   -0.267652
   7 C :    0.093195
   8 N :   -0.342291
   9 H :    0.125736
  10 H :    0.153043
  11 H :    0.133723
  12 H :    0.110887
  13 H :    0.113584
  14 H :    0.123171
  15 H :    0.112540
  16 H :    0.119885
  17 H :    0.144885
  18 H :    0.137981
  19 H :    0.120464
  20 H :    0.121892
  21 H :    0.144090
Sum of atomic charges:    0.0000000

LOEWDIN ATOMIC CHARGES
----------------------
   0 C :   -0.316922
   1 C :   -0.254160
   2 C :   -0.308352
   3 C :   -0.251380
   4 C :   -0.314755
   5 C :   -0.217358
   6 O :    0.213193
   7 C :   -0.352282
   8 N :    0.107279
   9 H :    0.118270
  10 H :    0.128845
  11 H :    0.121536
  12 H :    0.139604
  13 H :    0.142142
  14 H :    0.145208
  15 H :    0.141128
  16 H :    0.118891
  17 H :    0.126780
  18 H :    0.122947
  19 H :    0.127165
  20 H :    0.129026
  21 H :    0.133197

  Mayer bond orders larger than 0.1
B(  0-C ,  1-C ) :   0.9230 B(  0-C ,  9-H ) :   0.9404 B(  0-C , 10-H ) :   0.9350
B(  0-C , 11-H ) :   0.9372 B(  1-C ,  2-C ) :   0.8864 B(  1-C , 12-H ) :   0.9277
B(  1-C , 13-H ) :   0.9248 B(  2-C ,  3-C ) :   0.8932 B(  2-C ,  5-C ) :   0.8830
B(  2-C ,  8-N ) :   0.8297 B(  3-C ,  4-C ) :   0.9260 B(  3-C , 14-H ) :   0.9324
B(  3-C , 15-H ) :   0.9275 B(  4-C , 16-H ) :   0.9368 B(  4-C , 17-H ) :   0.9354
B(  4-C , 18-H ) :   0.9375 B(  5-C ,  6-O ) :   0.8786 B(  5-C , 19-H ) :   0.9210
B(  5-C , 20-H ) :   0.9226 B(  6-O ,  7-C ) :   1.0685 B(  7-C ,  8-N ) :   1.8161
B(  7-C , 21-H ) :   0.9229

MP2 TOTAL ENERGY:     -403.683582850 Eh
FINAL SINGLE POINT ENERGY      -403.683582849977

DIPOLE MOMENT
-------------
                                X             Y             Z
Electronic contribution:      3.20871       6.50621      -4.82889
Nuclear contribution   :     -3.75047      -6.61981       4.72173
                        -----------------------------------------
Total Dipole Moment    :     -0.54176      -0.11360      -0.10716
                        -----------------------------------------
Magnitude (a.u.)       :      0.56382
Magnitude (Debye)      :      1.43311

                             ****ORCA TERMINATED NORMALLY****
TOTAL RUN TIME: 0 days 0 hours 21 minutes 46 seconds 151 msec
