                         Program Version 3.0.3 - RELEASE   -
|  1> ! RI-MP2 RIJK def2-TZVP def2-TZVP/C def2-TZVP/JK TIGHTSCF
|  2> % maxcore 2000
|  3> % mp2 density relaxed end
|  4> *xyz 0 1
|  5>  C       -0.2314633720     1.5335232773     0.0091986552
|  6>  C       -0.0006007412     0.0290067496     0.0331189971
|  7>  C        0.6481889965    -0.5796680956    -1.2223798579
|  8>  O        1.9558451528    -0.0133594170    -1.3340421914
|  9>  C        1.7777151594    -1.1316386286    -0.4606490359
| 10>  C        1.2169326543    -0.6016805284     0.8605131175
| 11>  C        2.1580293413     0.2368751490     1.7127473579
| 12>  C        1.5645986458     0.9215344209     2.9319912486
| 13>  O        3.3357172731     0.3137259427     1.4496955577
| 14>  H        0.6926002281     2.0631302593    -0.2370652267
| 15>  H       -0.9785748250     1.7863388399    -0.7514984616
| 16>  H       -0.6064255283     1.9050062764     0.9676804134
| 17>  H       -0.9232226298    -0.4995741647     0.2914959569
| 18>  H        0.1702173989    -0.9200608348    -2.1338798340
| 19>  H        2.3962035104    -2.0029664136    -0.6354501306
| 20>  H        0.8248955596    -1.4099520228     1.4897373662
| 21>  H        2.3679366264     1.3026765099     3.5640092092
| 22>  H        0.9302088164     1.7578620350     2.6197521805
| 23>  H        0.9301719134     0.2346539057     3.5023933178
| 24> *
| 25>
| 26>                          ****END OF INPUT****

CARTESIAN COORDINATES (ANGSTROEM)
---------------------------------
  C     -0.231463    1.533523    0.009199
  C     -0.000601    0.029007    0.033119
  C      0.648189   -0.579668   -1.222380
  O      1.955845   -0.013359   -1.334042
  C      1.777715   -1.131639   -0.460649
  C      1.216933   -0.601681    0.860513
  C      2.158029    0.236875    1.712747
  C      1.564599    0.921534    2.931991
  O      3.335717    0.313726    1.449696
  H      0.692600    2.063130   -0.237065
  H     -0.978575    1.786339   -0.751498
  H     -0.606426    1.905006    0.967680
  H     -0.923223   -0.499574    0.291496
  H      0.170217   -0.920061   -2.133880
  H      2.396204   -2.002966   -0.635450
  H      0.824896   -1.409952    1.489737
  H      2.367937    1.302677    3.564009
  H      0.930209    1.757862    2.619752
  H      0.930172    0.234654    3.502393

 Total Charge           Charge          ....    0
 Multiplicity           Mult            ....    1
 Number of Electrons    NEL             ....   68
 Basis Dimension        Dim             ....  339

ORBITAL ENERGIES
----------------

  NO   OCC          E(Eh)            E(eV)
   0   2.0000     -20.569425      -559.7225
   1   2.0000     -20.542615      -558.9930
   2   2.0000     -11.329565      -308.2931
   3   2.0000     -11.290072      -307.2185
   4   2.0000     -11.288732      -307.1820
   5   2.0000     -11.258154      -306.3499
   6   2.0000     -11.254346      -306.2463
   7   2.0000     -11.235077      -305.7220
   8   2.0000     -11.225257      -305.4548
   9   2.0000      -1.423440       -38.7338
  10   2.0000      -1.385442       -37.6998
  11   2.0000      -1.110999       -30.2318
  12   2.0000      -1.016413       -27.6580
  13   2.0000      -0.989300       -26.9202
  14   2.0000      -0.912065       -24.8185
  15   2.0000      -0.851274       -23.1643
  16   2.0000      -0.789066       -21.4716
  17   2.0000      -0.728522       -19.8241
  18   2.0000      -0.712622       -19.3914
  19   2.0000      -0.655843       -17.8464
  20   2.0000      -0.643181       -17.5018
  21   2.0000      -0.618917       -16.8416
  22   2.0000      -0.611666       -16.6443
  23   2.0000      -0.582392       -15.8477
  24   2.0000      -0.564859       -15.3706
  25   2.0000      -0.561538       -15.2802
  26   2.0000      -0.546134       -14.8611
  27   2.0000      -0.514637       -14.0040
  28   2.0000      -0.512124       -13.9356
  29   2.0000      -0.490243       -13.3402
  30   2.0000      -0.473325       -12.8798
  31   2.0000      -0.443720       -12.0742
  32   2.0000      -0.418746       -11.3946
  33   2.0000      -0.395094       -10.7511
  34   0.0000       0.121778         3.3137
  35   0.0000       0.140122         3.8129
  36   0.0000       0.156759         4.2656
  37   0.0000       0.160144         4.3578
  38   0.0000       0.182578         4.9682

MULLIKEN ATOMIC CHARGES
-----------------------
   0 C :   -0.462520
   1 C :   -0.016233
   2 C :    0.005280
   3 O :   -0.322997
   4 C :   -0.027812
   5 C :   -0.043731
   6 C :    0.157042
   7 C :   -0.409349
   8 O :   -0.271314
   9 H :    0.166778
  10 H :    0.137367
  11 H :    0.129258
  12 H :    0.106170
  13 H :    0.141046
  14 H :    0.143655
  15 H :    0.127818
  16 H :    0.154050
  17 H :    0.145955
  18 H :    0.139535
Sum of atomic charges:   -0.0000000

LOEWDIN ATOMIC CHARGES
----------------------
   0 C :   -0.296934
   1 C :   -0.203294
   2 C :   -0.228579
   3 O :    0.189703
   4 C :   -0.217944
   5 C :   -0.163935
   6 C :   -0.332289
   7 C :   -0.277405
   8 O :    0.163402
   9 H :    0.134295
  10 H :    0.128902
  11 H :    0.120418
  12 H :    0.150535
  13 H :    0.130763
  14 H :    0.133371
  15 H :    0.165092
  16 H :    0.134188
  17 H :    0.136355
  18 H :    0.133357

  Mayer bond orders larger than 0.1
B(  0-C ,  1-C ) :   0.8823 B(  0-C ,  9-H ) :   0.9373 B(  0-C , 10-H ) :   0.9322
B(  0-C , 11-H ) :   0.9401 B(  1-C ,  2-C ) :   0.9006 B(  1-C ,  5-C ) :   0.9529
B(  1-C , 12-H ) :   0.9089 B(  2-C ,  3-O ) :   0.9113 B(  2-C ,  4-C ) :   0.8891
B(  2-C , 13-H ) :   0.9272 B(  3-O ,  4-C ) :   0.9243 B(  4-C ,  5-C ) :   0.8668
B(  4-C , 14-H ) :   0.9306 B(  5-C ,  6-C ) :   0.8504 B(  5-C ,  8-O ) :  -0.1077
B(  5-C , 15-H ) :   0.8768 B(  6-C ,  7-C ) :   0.9201 B(  6-C ,  8-O ) :   2.0498
B(  7-C , 16-H ) :   0.9363 B(  7-C , 17-H ) :   0.9136 B(  7-C , 18-H ) :   0.9182

MP2 TOTAL ENERGY:     -422.291410569 Eh
FINAL SINGLE POINT ENERGY      -422.291410568702

DIPOLE MOMENT
-------------
                                X             Y             Z
Electronic contribution:      6.10595      -3.40153      -3.43181
Nuclear contribution   :     -7.62054       2.91968       3.88911
                        -----------------------------------------
Total Dipole Moment    :     -1.51459      -0.48185       0.45731
                        -----------------------------------------
Magnitude (a.u.)       :      1.65387
Magnitude (Debye)      :      4.20380

                             ****ORCA TERMINATED NORMALLY****
TOTAL RUN TIME: 0 days 0 hours 17 minutes 52 seconds 203 msec
