                         Program Version 3.0.3 - RELEASE   -
|  1> ! RI-MP2 RIJK def2-TZVP def2-TZVP/C def2-TZVP/JK TIGHTSCF
|  2> % maxcore 2000
|  3> % mp2 density relaxed end
|  4> *xyz 0 1
|  5>  O        0.0735817248     0.3200906772     1.0169320613
|  6>  C       -0.0382761269     1.3119323935     0.3154040127
|  7>  C       -1.3804535680     1.7045977047    -0.1691352149
|  8>  C       -1.7478691015     2.5655400636    -1.1265814345
|  9>  C       -0.9209328633     3.4364744662    -2.0273301585
| 10>  C        0.4734393520     2.9276329373    -2.4132406004
| 11>  C        1.4628646530     2.8412901667    -1.2682469927
| 12>  N        1.1471830851     3.5714133249    -0.0449932001
| 13>  C        1.2037770654     2.0919705186    -0.0005736147
| 14>  H       -2.1562783951     1.1452183383     0.3472596996
| 15>  H       -2.8210630740     2.6616312794    -1.2878626050
| 16>  H       -1.4900259145     3.6059567639    -2.9486695462
| 17>  H       -0.8188065302     4.4192553996    -1.5490820310
| 18>  H        0.3968740660     1.9459368387    -2.8971091512
| 19>  H        0.8818043670     3.6121548058    -3.1667888887
| 20>  H        2.5047339808     2.8169778720    -1.5856116845
| 21>  H        1.9806109176     3.9576045715     0.3887494072
| 22>  H        2.0664589617     1.6342390481     0.4766073614
| 23> *
| 24>
| 25>                          ****END OF INPUT****

CARTESIAN COORDINATES (ANGSTROEM)
---------------------------------
  O      0.073582    0.320091    1.016932
  C     -0.038276    1.311932    0.315404
  C     -1.380454    1.704598   -0.169135
  C     -1.747869    2.565540   -1.126581
  C     -0.920933    3.436474   -2.027330
  C      0.473439    2.927633   -2.413241
  C      1.462865    2.841290   -1.268247
  N      1.147183    3.571413   -0.044993
  C      1.203777    2.091971   -0.000574
  H     -2.156278    1.145218    0.347260
  H     -2.821063    2.661631   -1.287863
  H     -1.490026    3.605957   -2.948670
  H     -0.818807    4.419255   -1.549082
  H      0.396874    1.945937   -2.897109
  H      0.881804    3.612155   -3.166789
  H      2.504734    2.816978   -1.585612
  H      1.980611    3.957605    0.388749
  H      2.066459    1.634239    0.476607

 Total Charge           Charge          ....    0
 Multiplicity           Mult            ....    1
 Number of Electrons    NEL             ....   66
 Basis Dimension        Dim             ....  333

ORBITAL ENERGIES
----------------

  NO   OCC          E(Eh)            E(eV)
   0   2.0000     -20.537236      -558.8466
   1   2.0000     -15.576475      -423.8574
   2   2.0000     -11.327867      -308.2469
   3   2.0000     -11.280905      -306.9690
   4   2.0000     -11.270860      -306.6957
   5   2.0000     -11.258967      -306.3721
   6   2.0000     -11.241965      -305.9094
   7   2.0000     -11.240802      -305.8778
   8   2.0000     -11.231976      -305.6376
   9   2.0000      -1.379400       -37.5354
  10   2.0000      -1.281665       -34.8759
  11   2.0000      -1.102716       -30.0064
  12   2.0000      -1.033114       -28.1124
  13   2.0000      -0.957258       -26.0483
  14   2.0000      -0.909536       -24.7497
  15   2.0000      -0.853222       -23.2173
  16   2.0000      -0.779456       -21.2101
  17   2.0000      -0.725627       -19.7453
  18   2.0000      -0.709109       -19.2958
  19   2.0000      -0.659396       -17.9431
  20   2.0000      -0.652153       -17.7460
  21   2.0000      -0.612227       -16.6595
  22   2.0000      -0.592150       -16.1132
  23   2.0000      -0.582451       -15.8493
  24   2.0000      -0.550992       -14.9933
  25   2.0000      -0.536019       -14.5858
  26   2.0000      -0.503072       -13.6893
  27   2.0000      -0.500578       -13.6214
  28   2.0000      -0.485735       -13.2175
  29   2.0000      -0.464442       -12.6381
  30   2.0000      -0.427528       -11.6336
  31   2.0000      -0.397577       -10.8186
  32   2.0000      -0.369599       -10.0573
  33   0.0000       0.092689         2.5222
  34   0.0000       0.122077         3.3219
  35   0.0000       0.146877         3.9967
  36   0.0000       0.160336         4.3630
  37   0.0000       0.177484         4.8296

MULLIKEN ATOMIC CHARGES
-----------------------
   0 O :   -0.295113
   1 C :    0.182957
   2 C :   -0.183748
   3 C :   -0.159333
   4 C :   -0.111060
   5 C :   -0.221760
   6 C :   -0.039253
   7 N :   -0.401027
   8 C :   -0.038484
   9 H :    0.134151
  10 H :    0.127419
  11 H :    0.134187
  12 H :    0.130932
  13 H :    0.125487
  14 H :    0.124238
  15 H :    0.130977
  16 H :    0.224539
  17 H :    0.134891
Sum of atomic charges:    0.0000000

LOEWDIN ATOMIC CHARGES
----------------------
   0 O :    0.146058
   1 C :   -0.310476
   2 C :   -0.140931
   3 C :   -0.130940
   4 C :   -0.251347
   5 C :   -0.241768
   6 C :   -0.253731
   7 N :    0.023040
   8 C :   -0.212939
   9 H :    0.158708
  10 H :    0.150787
  11 H :    0.147106
  12 H :    0.159739
  13 H :    0.147923
  14 H :    0.145882
  15 H :    0.142864
  16 H :    0.170414
  17 H :    0.149611

  Mayer bond orders larger than 0.1
B(  0-O ,  1-C ) :   1.9039 B(  1-C ,  2-C ) :   1.0276 B(  1-C ,  8-C ) :   0.9399
B(  2-C ,  3-C ) :   1.7065 B(  2-C ,  9-H ) :   0.9174 B(  3-C ,  4-C ) :   0.9399
B(  3-C , 10-H ) :   0.9210 B(  4-C ,  5-C ) :   0.9278 B(  4-C , 11-H ) :   0.9271
B(  4-C , 12-H ) :   0.8940 B(  5-C ,  6-C ) :   0.9410 B(  5-C , 13-H ) :   0.9271
B(  5-C , 14-H ) :   0.9241 B(  6-C ,  7-N ) :   0.9336 B(  6-C ,  8-C ) :   0.8337
B(  6-C , 15-H ) :   0.9223 B(  7-N ,  8-C ) :   0.8484 B(  7-N , 16-H ) :   0.8651
B(  8-C , 17-H ) :   0.9351

MP2 TOTAL ENERGY:     -401.251845335 Eh
FINAL SINGLE POINT ENERGY      -401.251845335006

DIPOLE MOMENT
-------------
                                X             Y             Z
Electronic contribution:      0.33161      -3.77593       5.15315
Nuclear contribution   :      0.07721       4.71791      -6.15811
                        -----------------------------------------
Total Dipole Moment    :      0.40883       0.94198      -1.00496
                        -----------------------------------------
Magnitude (a.u.)       :      1.43681
Magnitude (Debye)      :      3.65207

                             ****ORCA TERMINATED NORMALLY****
TOTAL RUN TIME: 0 days 0 hours 17 minutes 15 seconds 322 msec
