                         Program Version 3.0.3 - RELEASE   -
|  1> ! RI-MP2 RIJK def2-TZVP def2-TZVP/C def2-TZVP/JK TIGHTSCF
|  2> % maxcore 2000
|  3> % mp2 density relaxed end
|  4> *xyz 0 1
|  5>  C        0.0094965067     1.5041950267    -0.0249104994
|  6>  C        1.5073532865     1.9161437392    -0.0245159319
|  7>  C        2.1839181708     0.7412462727     0.6390852622
|  8>  C        3.4506904275     0.6111145622     1.1873285690
|  9>  C        3.8017447514    -0.6283132563     1.7238305275
| 10>  C        2.8791897904    -1.6707428703     1.6810799804
| 11>  N        1.6525193055    -1.5633375847     1.1520690770
| 12>  C        1.3341633100    -0.3733252383     0.6513356709
| 13>  C        0.0095003231    -0.0436895113     0.0006787985
| 14>  H       -0.4659870848     1.8809399924     0.8868266816
| 15>  H       -0.5400572504     1.9181595965    -0.8734363519
| 16>  H        1.8801048944     2.0398336171    -1.0506964575
| 17>  H        1.6844420893     2.8664215843     0.4888648991
| 18>  H        4.1487184114     1.4430937383     1.2067572510
| 19>  H        4.7761195815    -0.7858986503     2.1729882699
| 20>  H        3.1359609877    -2.6426192045     2.0959809934
| 21>  H       -0.8384377101    -0.4725003462     0.5408987734
| 22>  H       -0.0184418409    -0.4610654976    -1.0150165032
| 23> *
| 24>
| 25>                          ****END OF INPUT****

CARTESIAN COORDINATES (ANGSTROEM)
---------------------------------
  C      0.009497    1.504195   -0.024910
  C      1.507353    1.916144   -0.024516
  C      2.183918    0.741246    0.639085
  C      3.450690    0.611115    1.187329
  C      3.801745   -0.628313    1.723831
  C      2.879190   -1.670743    1.681080
  N      1.652519   -1.563338    1.152069
  C      1.334163   -0.373325    0.651336
  C      0.009500   -0.043690    0.000679
  H     -0.465987    1.880940    0.886827
  H     -0.540057    1.918160   -0.873436
  H      1.880105    2.039834   -1.050696
  H      1.684442    2.866422    0.488865
  H      4.148718    1.443094    1.206757
  H      4.776120   -0.785899    2.172988
  H      3.135961   -2.642619    2.095981
  H     -0.838438   -0.472500    0.540899
  H     -0.018442   -0.461065   -1.015017

 Total Charge           Charge          ....    0
 Multiplicity           Mult            ....    1
 Number of Electrons    NEL             ....   64
 Basis Dimension        Dim             ....  333

ORBITAL ENERGIES
----------------

  NO   OCC          E(Eh)            E(eV)
   0   2.0000     -15.556331      -423.3093
   1   2.0000     -11.265335      -306.5453
   2   2.0000     -11.265304      -306.5445
   3   2.0000     -11.250781      -306.1493
   4   2.0000     -11.233866      -305.6890
   5   2.0000     -11.232977      -305.6648
   6   2.0000     -11.232769      -305.6592
   7   2.0000     -11.228699      -305.5484
   8   2.0000     -11.225932      -305.4732
   9   2.0000      -1.255425       -34.1618
  10   2.0000      -1.124451       -30.5979
  11   2.0000      -1.077301       -29.3148
  12   2.0000      -0.984907       -26.8007
  13   2.0000      -0.957454       -26.0537
  14   2.0000      -0.856329       -23.3019
  15   2.0000      -0.810891       -22.0655
  16   2.0000      -0.797799       -21.7092
  17   2.0000      -0.690805       -18.7978
  18   2.0000      -0.670406       -18.2427
  19   2.0000      -0.640439       -17.4272
  20   2.0000      -0.612818       -16.6756
  21   2.0000      -0.584125       -15.8948
  22   2.0000      -0.562771       -15.3138
  23   2.0000      -0.557680       -15.1752
  24   2.0000      -0.537156       -14.6167
  25   2.0000      -0.506524       -13.7832
  26   2.0000      -0.499888       -13.6026
  27   2.0000      -0.483616       -13.1599
  28   2.0000      -0.476804       -12.9745
  29   2.0000      -0.404852       -11.0166
  30   2.0000      -0.374544       -10.1919
  31   2.0000      -0.323423        -8.8008
  32   0.0000       0.103661         2.8208
  33   0.0000       0.132775         3.6130
  34   0.0000       0.136641         3.7182
  35   0.0000       0.157715         4.2916
  36   0.0000       0.173066         4.7094

MULLIKEN ATOMIC CHARGES
-----------------------
   0 C :   -0.226357
   1 C :   -0.212317
   2 C :    0.029167
   3 C :   -0.225866
   4 C :   -0.068917
   5 C :   -0.064046
   6 N :   -0.237883
   7 C :    0.080932
   8 C :   -0.210194
   9 H :    0.114617
  10 H :    0.126613
  11 H :    0.124452
  12 H :    0.131125
  13 H :    0.129466
  14 H :    0.132057
  15 H :    0.123008
  16 H :    0.132367
  17 H :    0.121774
Sum of atomic charges:    0.0000000

LOEWDIN ATOMIC CHARGES
----------------------
   0 C :   -0.235499
   1 C :   -0.206603
   2 C :   -0.117138
   3 C :   -0.108173
   4 C :   -0.148690
   5 C :   -0.214382
   6 N :    0.155257
   7 C :   -0.192940
   8 C :   -0.208284
   9 H :    0.138499
  10 H :    0.131300
  11 H :    0.145390
  12 H :    0.139728
  13 H :    0.148190
  14 H :    0.147896
  15 H :    0.137261
  16 H :    0.142366
  17 H :    0.145822

  Mayer bond orders larger than 0.1
B(  0-C ,  1-C ) :   0.9440 B(  0-C ,  8-C ) :   0.9499 B(  0-C ,  9-H ) :   0.9270
B(  0-C , 10-H ) :   0.9388 B(  1-C ,  2-C ) :   0.8998 B(  1-C , 11-H ) :   0.9045
B(  1-C , 12-H ) :   0.9273 B(  2-C ,  3-C ) :   1.3414 B(  2-C ,  7-C ) :   1.2801
B(  3-C ,  4-C ) :   1.3469 B(  3-C , 13-H ) :   0.9332 B(  4-C ,  5-C ) :   1.3081
B(  4-C , 14-H ) :   0.9226 B(  5-C ,  6-N ) :   1.3872 B(  5-C , 15-H ) :   0.9493
B(  6-N ,  7-C ) :   1.4262 B(  7-C ,  8-C ) :   0.9118 B(  8-C , 16-H ) :   0.9294
B(  8-C , 17-H ) :   0.9140

MP2 TOTAL ENERGY:     -364.221898344 Eh
FINAL SINGLE POINT ENERGY      -364.221898343762

DIPOLE MOMENT
-------------
                                X             Y             Z
Electronic contribution:      2.97137      -4.00091       2.12437
Nuclear contribution   :     -2.62790       4.80764      -2.24633
                        -----------------------------------------
Total Dipole Moment    :      0.34347       0.80673      -0.12196
                        -----------------------------------------
Magnitude (a.u.)       :      0.88525
Magnitude (Debye)      :      2.25012

                             ****ORCA TERMINATED NORMALLY****
TOTAL RUN TIME: 0 days 0 hours 18 minutes 52 seconds 717 msec
