                         Program Version 3.0.3 - RELEASE   -
|  1> ! RI-MP2 RIJK def2-TZVP def2-TZVP/C def2-TZVP/JK TIGHTSCF
|  2> % maxcore 2000
|  3> % mp2 density relaxed end
|  4> *xyz 0 1
|  5>  C        0.0183475059     1.4176692480     0.0178301720
|  6>  N       -0.0025124326    -0.0250018190     0.0747936748
|  7>  N       -0.0909422059    -0.7720493385    -1.0823254085
|  8>  N       -0.0947503167    -2.0348952743    -0.8130286388
|  9>  C       -0.0074452341    -2.1612256274     0.5542007704
| 10>  C        0.0489668976    -3.0267028287     1.6394614397
| 11>  N        0.1336443482    -2.2057952337     2.7181136057
| 12>  N        0.1392654458    -0.8655930329     2.4565992640
| 13>  C        0.0520116077    -0.8782978111     1.1290346678
| 14>  H        0.9456111071     1.8085864720     0.4475911706
| 15>  H       -0.0456271243     1.7025246346    -1.0326194991
| 16>  H       -0.8311350068     1.8388623750     0.5639998329
| 17>  H        0.0376650075    -4.0987543030     1.7437887451
| 18>  H        0.1915966008    -2.4931620008     3.6815916035
| 19> *
| 20>
| 21>                          ****END OF INPUT****

CARTESIAN COORDINATES (ANGSTROEM)
---------------------------------
  C      0.018348    1.417669    0.017830
  N     -0.002512   -0.025002    0.074794
  N     -0.090942   -0.772049   -1.082325
  N     -0.094750   -2.034895   -0.813029
  C     -0.007445   -2.161226    0.554201
  C      0.048967   -3.026703    1.639461
  N      0.133644   -2.205795    2.718114
  N      0.139265   -0.865593    2.456599
  C      0.052012   -0.878298    1.129035
  H      0.945611    1.808586    0.447591
  H     -0.045627    1.702525   -1.032619
  H     -0.831135    1.838862    0.564000
  H      0.037665   -4.098754    1.743789
  H      0.191597   -2.493162    3.681592

 Total Charge           Charge          ....    0
 Multiplicity           Mult            ....    1
 Number of Electrons    NEL             ....   64
 Basis Dimension        Dim             ....  309

ORBITAL ENERGIES
----------------

  NO   OCC          E(Eh)            E(eV)
   0   2.0000     -15.661477      -426.1705
   1   2.0000     -15.658857      -426.0992
   2   2.0000     -15.641898      -425.6377
   3   2.0000     -15.610082      -424.7719
   4   2.0000     -15.593384      -424.3176
   5   2.0000     -11.306846      -307.6749
   6   2.0000     -11.296914      -307.4047
   7   2.0000     -11.278956      -306.9160
   8   2.0000     -11.252874      -306.2063
   9   2.0000      -1.436652       -39.0933
  10   2.0000      -1.378603       -37.5137
  11   2.0000      -1.226977       -33.3877
  12   2.0000      -1.113468       -30.2990
  13   2.0000      -1.080738       -29.4084
  14   2.0000      -0.985035       -26.8042
  15   2.0000      -0.927824       -25.2474
  16   2.0000      -0.825588       -22.4654
  17   2.0000      -0.787902       -21.4399
  18   2.0000      -0.725834       -19.7510
  19   2.0000      -0.687640       -18.7116
  20   2.0000      -0.679498       -18.4901
  21   2.0000      -0.673978       -18.3399
  22   2.0000      -0.614048       -16.7091
  23   2.0000      -0.591528       -16.0963
  24   2.0000      -0.574891       -15.6436
  25   2.0000      -0.560937       -15.2639
  26   2.0000      -0.532401       -14.4874
  27   2.0000      -0.480621       -13.0784
  28   2.0000      -0.442735       -12.0474
  29   2.0000      -0.432974       -11.7818
  30   2.0000      -0.353947        -9.6314
  31   2.0000      -0.329410        -8.9637
  32   0.0000       0.093270         2.5380
  33   0.0000       0.126778         3.4498
  34   0.0000       0.147409         4.0112
  35   0.0000       0.169206         4.6043
  36   0.0000       0.186562         5.0766

MULLIKEN ATOMIC CHARGES
-----------------------
   0 C :   -0.321144
   1 N :    0.066828
   2 N :   -0.120705
   3 N :   -0.144199
   4 C :   -0.037411
   5 C :   -0.121404
   6 N :   -0.051457
   7 N :   -0.255697
   8 C :    0.070636
   9 H :    0.153809
  10 H :    0.176010
  11 H :    0.153810
  12 H :    0.168148
  13 H :    0.262776
Sum of atomic charges:    0.0000000

LOEWDIN ATOMIC CHARGES
----------------------
   0 C :   -0.276735
   1 N :    0.171045
   2 N :   -0.005940
   3 N :    0.023777
   4 C :   -0.273245
   5 C :   -0.205507
   6 N :    0.159795
   7 N :    0.022302
   8 C :   -0.337689
   9 H :    0.126198
  10 H :    0.135537
  11 H :    0.126198
  12 H :    0.141279
  13 H :    0.192985

  Mayer bond orders larger than 0.1
B(  0-C ,  1-N ) :   0.8600 B(  0-C ,  9-H ) :   0.9275 B(  0-C , 10-H ) :   0.9235
B(  0-C , 11-H ) :   0.9275 B(  1-N ,  2-N ) :   0.9755 B(  1-N ,  8-C ) :   1.1490
B(  2-N ,  3-N ) :   1.3216 B(  3-N ,  4-C ) :   1.3261 B(  4-C ,  5-C ) :   1.3370
B(  4-C ,  8-C ) :   1.1658 B(  5-C ,  6-N ) :   1.2412 B(  5-C ,  7-N ) :   0.1592
B(  5-C , 12-H ) :   0.8986 B(  6-N ,  7-N ) :   1.0729 B(  6-N , 13-H ) :   0.8668
B(  7-N ,  8-C ) :   1.4995

MP2 TOTAL ENERGY:     -428.303841525 Eh
FINAL SINGLE POINT ENERGY      -428.303841524584

DIPOLE MOMENT
-------------
                                X             Y             Z
Electronic contribution:     -0.07303      -4.05768      -0.06040
Nuclear contribution   :      0.17166       4.15902       1.54173
                        -----------------------------------------
Total Dipole Moment    :      0.09863       0.10134       1.48133
                        -----------------------------------------
Magnitude (a.u.)       :      1.48807
Magnitude (Debye)      :      3.78237

                             ****ORCA TERMINATED NORMALLY****
TOTAL RUN TIME: 0 days 0 hours 16 minutes 45 seconds 655 msec
