                         Program Version 3.0.3 - RELEASE   -
|  1> ! RI-MP2 RIJK def2-TZVP def2-TZVP/C def2-TZVP/JK TIGHTSCF
|  2> % maxcore 2000
|  3> % mp2 density relaxed end
|  4> *xyz 0 1
|  5>  C       -0.2564694228    -0.7284572885     1.3327485035
|  6>  C       -0.5585441764    -0.3992654618    -0.1319214699
|  7>  C        0.6631346617    -0.2952825436    -1.0454653291
|  8>  C        0.5060667963     0.7647659022    -2.1240570516
|  9>  O        1.6860760623     0.8189132503    -2.9100632472
| 10>  N        1.9874665290    -0.4651716392    -0.4461447741
| 11>  C        1.4886400523    -1.4981130493    -1.3947381340
| 12>  C        1.2006704336    -2.8140958126    -0.8958639030
| 13>  C        0.9445554944    -3.9318962331    -0.5320025914
| 14>  H        0.2459139121    -1.6925882388     1.4284828405
| 15>  H        0.3938975836     0.0279932029     1.7785854942
| 16>  H       -1.1891699947    -0.7666061435     1.9046162888
| 17>  H       -1.2408654108    -1.1502287233    -0.5491948701
| 18>  H       -1.0985697847     0.5563275495    -0.1759750210
| 19>  H       -0.3774606673     0.5291922670    -2.7380883598
| 20>  H        0.3182869909     1.7337478816    -1.6335751174
| 21>  H        1.5973949419     1.5294707287    -3.5505372039
| 22>  H        2.6548845315     0.1135848088    -0.9535809309
| 23>  H        1.9285067909    -1.4793198276    -2.3881059417
| 24>  H        0.7280723460    -4.9162725796    -0.1982947718
| 25> *
| 26>
| 27>                          ****END OF INPUT****

CARTESIAN COORDINATES (ANGSTROEM)
---------------------------------
  C     -0.256469   -0.728457    1.332749
  C     -0.558544   -0.399265   -0.131921
  C      0.663135   -0.295283   -1.045465
  C      0.506067    0.764766   -2.124057
  O      1.686076    0.818913   -2.910063
  N      1.987467   -0.465172   -0.446145
  C      1.488640   -1.498113   -1.394738
  C      1.200670   -2.814096   -0.895864
  C      0.944555   -3.931896   -0.532003
  H      0.245914   -1.692588    1.428483
  H      0.393898    0.027993    1.778585
  H     -1.189170   -0.766606    1.904616
  H     -1.240865   -1.150229   -0.549195
  H     -1.098570    0.556328   -0.175975
  H     -0.377461    0.529192   -2.738088
  H      0.318287    1.733748   -1.633575
  H      1.597395    1.529471   -3.550537
  H      2.654885    0.113585   -0.953581
  H      1.928507   -1.479320   -2.388106
  H      0.728072   -4.916273   -0.198295

 Total Charge           Charge          ....    0
 Multiplicity           Mult            ....    1
 Number of Electrons    NEL             ....   68
 Basis Dimension        Dim             ....  345

ORBITAL ENERGIES
----------------

  NO   OCC          E(Eh)            E(eV)
   0   2.0000     -20.575976      -559.9008
   1   2.0000     -15.557236      -423.3339
   2   2.0000     -11.293726      -307.3179
   3   2.0000     -11.273463      -306.7665
   4   2.0000     -11.272606      -306.7432
   5   2.0000     -11.229855      -305.5799
   6   2.0000     -11.224972      -305.4470
   7   2.0000     -11.218554      -305.2724
   8   2.0000     -11.201716      -304.8142
   9   2.0000      -1.383658       -37.6513
  10   2.0000      -1.267884       -34.5009
  11   2.0000      -1.041879       -28.3510
  12   2.0000      -1.031925       -28.0801
  13   2.0000      -0.971289       -26.4301
  14   2.0000      -0.905268       -24.6336
  15   2.0000      -0.855305       -23.2740
  16   2.0000      -0.772511       -21.0211
  17   2.0000      -0.735343       -20.0097
  18   2.0000      -0.708178       -19.2705
  19   2.0000      -0.676017       -18.3954
  20   2.0000      -0.658318       -17.9138
  21   2.0000      -0.631776       -17.1915
  22   2.0000      -0.603321       -16.4172
  23   2.0000      -0.575636       -15.6638
  24   2.0000      -0.554960       -15.1012
  25   2.0000      -0.519691       -14.1415
  26   2.0000      -0.508423       -13.8349
  27   2.0000      -0.490544       -13.3484
  28   2.0000      -0.478920       -13.0321
  29   2.0000      -0.466538       -12.6951
  30   2.0000      -0.456447       -12.4206
  31   2.0000      -0.413954       -11.2643
  32   2.0000      -0.383390       -10.4326
  33   2.0000      -0.356572        -9.7028
  34   0.0000       0.120910         3.2901
  35   0.0000       0.150653         4.0995
  36   0.0000       0.163956         4.4615
  37   0.0000       0.168747         4.5918
  38   0.0000       0.177453         4.8287

MULLIKEN ATOMIC CHARGES
-----------------------
   0 C :   -0.383411
   1 C :   -0.250472
   2 C :    0.236391
   3 C :   -0.067855
   4 O :   -0.484386
   5 N :   -0.374328
   6 C :   -0.385784
   7 C :    0.058868
   8 C :   -0.100802
   9 H :    0.146092
  10 H :    0.126157
  11 H :    0.123737
  12 H :    0.124937
  13 H :    0.111113
  14 H :    0.112013
  15 H :    0.109237
  16 H :    0.320830
  17 H :    0.232398
  18 H :    0.156468
  19 H :    0.188798
Sum of atomic charges:   -0.0000000

LOEWDIN ATOMIC CHARGES
----------------------
   0 C :   -0.308881
   1 C :   -0.244947
   2 C :   -0.284403
   3 C :   -0.311877
   4 O :   -0.043402
   5 N :    0.051680
   6 C :   -0.222646
   7 C :   -0.089944
   8 C :   -0.094217
   9 H :    0.128090
  10 H :    0.123559
  11 H :    0.119136
  12 H :    0.146264
  13 H :    0.141174
  14 H :    0.127420
  15 H :    0.124565
  16 H :    0.177562
  17 H :    0.172773
  18 H :    0.161710
  19 H :    0.126384

  Mayer bond orders larger than 0.1
B(  0-C ,  1-C ) :   0.9452 B(  0-C ,  9-H ) :   0.9348 B(  0-C , 10-H ) :   0.9357
B(  0-C , 11-H ) :   0.9347 B(  1-C ,  2-C ) :   0.9045 B(  1-C , 12-H ) :   0.9260
B(  1-C , 13-H ) :   0.9381 B(  2-C ,  3-C ) :   0.9011 B(  2-C ,  5-N ) :   0.9040
B(  2-C ,  6-C ) :   0.8939 B(  3-C ,  4-O ) :   0.9771 B(  3-C , 14-H ) :   0.9266
B(  3-C , 15-H ) :   0.9234 B(  4-O , 16-H ) :   0.8440 B(  5-N ,  6-C ) :   0.9881
B(  5-N , 17-H ) :   0.8606 B(  6-C ,  7-C ) :   1.1236 B(  6-C ,  8-C ) :  -0.1707
B(  6-C , 18-H ) :   0.9389 B(  7-C ,  8-C ) :   2.5940 B(  8-C , 19-H ) :   0.8898

MP2 TOTAL ENERGY:     -402.392394559 Eh
FINAL SINGLE POINT ENERGY      -402.392394558603

DIPOLE MOMENT
-------------
                                X             Y             Z
Electronic contribution:      4.50751      -2.78310      -3.81707
Nuclear contribution   :     -5.06306       3.58397       3.02182
                        -----------------------------------------
Total Dipole Moment    :     -0.55555       0.80086      -0.79525
                        -----------------------------------------
Magnitude (a.u.)       :      1.25795
Magnitude (Debye)      :      3.19746

                             ****ORCA TERMINATED NORMALLY****
TOTAL RUN TIME: 0 days 0 hours 19 minutes 37 seconds 403 msec
