                         Program Version 3.0.3 - RELEASE   -
|  1> ! RI-MP2 RIJK def2-TZVP def2-TZVP/C def2-TZVP/JK TIGHTSCF
|  2> % maxcore 2000
|  3> % mp2 density relaxed end
|  4> *xyz 0 1
|  5>  O       -0.0815191032     1.3311081844     0.0182347037
|  6>  C        0.0227097849    -0.0427825297    -0.0006217972
|  7>  C        0.6665294158    -0.9842676852     1.0692561801
|  8>  C        0.0452003852    -1.9048424822    -0.0203112203
|  9>  C        0.0647353093    -3.4199605221    -0.0198600174
| 10>  C       -0.6053247311    -3.9861494138    -1.1912069342
| 11>  N       -1.1379745826    -4.4137882210    -2.1230927206
| 12>  C       -1.2083063159    -0.9764951517    -0.0040088301
| 13>  C        0.6528132119    -0.9589355763    -1.0980489121
| 14>  H        0.8042390195     1.7090205705    -0.0070953409
| 15>  H        1.7586421431    -0.9828000643     1.1401312531
| 16>  H        0.1932769399    -1.0019723165     2.0546965819
| 17>  H        1.0984216897    -3.7854288195     0.0006329445
| 18>  H       -0.4250868512    -3.8051378886     0.8823811763
| 19>  H       -1.8136133518    -0.9897182622     0.9062637889
| 20>  H       -1.8240309298    -0.9732407179    -0.9061572711
| 21>  H        0.1678611266    -0.9591456425    -2.0768114790
| 22>  H        1.7440994596    -0.9554953916    -1.1808356755
| 23> *
| 24>
| 25>                          ****END OF INPUT****

CARTESIAN COORDINATES (ANGSTROEM)
---------------------------------
  O     -0.081519    1.331108    0.018235
  C      0.022710   -0.042783   -0.000622
  C      0.666529   -0.984268    1.069256
  C      0.045200   -1.904842   -0.020311
  C      0.064735   -3.419961   -0.019860
  C     -0.605325   -3.986149   -1.191207
  N     -1.137975   -4.413788   -2.123093
  C     -1.208306   -0.976495   -0.004009
  C      0.652813   -0.958936   -1.098049
  H      0.804239    1.709021   -0.007095
  H      1.758642   -0.982800    1.140131
  H      0.193277   -1.001972    2.054697
  H      1.098422   -3.785429    0.000633
  H     -0.425087   -3.805138    0.882381
  H     -1.813613   -0.989718    0.906264
  H     -1.824031   -0.973241   -0.906157
  H      0.167861   -0.959146   -2.076811
  H      1.744099   -0.955495   -1.180836

 Total Charge           Charge          ....    0
 Multiplicity           Mult            ....    1
 Number of Electrons    NEL             ....   66
 Basis Dimension        Dim             ....  333

ORBITAL ENERGIES
----------------

  NO   OCC          E(Eh)            E(eV)
   0   2.0000     -20.576412      -559.9126
   1   2.0000     -15.569152      -423.6582
   2   2.0000     -11.314296      -307.8777
   3   2.0000     -11.287794      -307.1565
   4   2.0000     -11.277120      -306.8660
   5   2.0000     -11.274098      -306.7838
   6   2.0000     -11.245677      -306.0104
   7   2.0000     -11.242554      -305.9254
   8   2.0000     -11.240155      -305.8602
   9   2.0000      -1.390290       -37.8317
  10   2.0000      -1.230402       -33.4809
  11   2.0000      -1.215412       -33.0730
  12   2.0000      -1.054661       -28.6988
  13   2.0000      -0.930295       -25.3146
  14   2.0000      -0.928675       -25.2705
  15   2.0000      -0.837127       -22.7794
  16   2.0000      -0.752238       -20.4694
  17   2.0000      -0.728356       -19.8196
  18   2.0000      -0.687098       -18.6969
  19   2.0000      -0.647689       -17.6245
  20   2.0000      -0.641253       -17.4494
  21   2.0000      -0.637173       -17.3384
  22   2.0000      -0.612905       -16.6780
  23   2.0000      -0.574921       -15.6444
  24   2.0000      -0.556172       -15.1342
  25   2.0000      -0.519297       -14.1308
  26   2.0000      -0.509835       -13.8733
  27   2.0000      -0.473195       -12.8763
  28   2.0000      -0.469972       -12.7886
  29   2.0000      -0.460851       -12.5404
  30   2.0000      -0.452863       -12.3230
  31   2.0000      -0.444668       -12.1000
  32   2.0000      -0.422180       -11.4881
  33   0.0000       0.117217         3.1896
  34   0.0000       0.131768         3.5856
  35   0.0000       0.161062         4.3827
  36   0.0000       0.166122         4.5204
  37   0.0000       0.172512         4.6943

MULLIKEN ATOMIC CHARGES
-----------------------
   0 O :   -0.445245
   1 C :    0.105190
   2 C :   -0.173682
   3 C :   -0.149434
   4 C :   -0.094314
   5 C :   -0.182808
   6 N :   -0.058700
   7 C :   -0.177356
   8 C :   -0.199160
   9 H :    0.324653
  10 H :    0.115803
  11 H :    0.117787
  12 H :    0.158747
  13 H :    0.161069
  14 H :    0.116956
  15 H :    0.130980
  16 H :    0.133609
  17 H :    0.115906
Sum of atomic charges:   -0.0000000

LOEWDIN ATOMIC CHARGES
----------------------
   0 O :    0.031407
   1 C :   -0.345431
   2 C :   -0.163247
   3 C :   -0.210501
   4 C :   -0.211890
   5 C :   -0.182987
   6 N :    0.058206
   7 C :   -0.144447
   8 C :   -0.159543
   9 H :    0.186273
  10 H :    0.129272
  11 H :    0.132366
  12 H :    0.170747
  13 H :    0.171050
  14 H :    0.133812
  15 H :    0.138317
  16 H :    0.137162
  17 H :    0.129435

  Mayer bond orders larger than 0.1
B(  0-O ,  1-C ) :   1.0338 B(  0-O ,  9-H ) :   0.8340 B(  1-C ,  2-C ) :   0.8853
B(  1-C ,  7-C ) :   0.9165 B(  1-C ,  8-C ) :   0.8879 B(  2-C ,  3-C ) :   0.9045
B(  2-C , 10-H ) :   0.9226 B(  2-C , 11-H ) :   0.9209 B(  3-C ,  4-C ) :   0.8361
B(  3-C ,  7-C ) :   0.8952 B(  3-C ,  8-C ) :   0.9199 B(  4-C ,  5-C ) :   0.9387
B(  4-C , 12-H ) :   0.9130 B(  4-C , 13-H ) :   0.9126 B(  5-C ,  6-N ) :   2.8693
B(  7-C , 14-H ) :   0.9239 B(  7-C , 15-H ) :   0.9190 B(  8-C , 16-H ) :   0.9207
B(  8-C , 17-H ) :   0.9239

MP2 TOTAL ENERGY:     -401.235372268 Eh
FINAL SINGLE POINT ENERGY      -401.235372267756

DIPOLE MOMENT
-------------
                                X             Y             Z
Electronic contribution:     -1.75667      -2.19010      -2.61239
Nuclear contribution   :      2.95658       2.70760       3.76294
                        -----------------------------------------
Total Dipole Moment    :      1.19991       0.51749       1.15054
                        -----------------------------------------
Magnitude (a.u.)       :      1.74107
Magnitude (Debye)      :      4.42546

                             ****ORCA TERMINATED NORMALLY****
TOTAL RUN TIME: 0 days 0 hours 16 minutes 1 seconds 965 msec
