                         Program Version 3.0.3 - RELEASE   -
|  1> ! RI-MP2 RIJK def2-TZVP def2-TZVP/C def2-TZVP/JK TIGHTSCF
|  2> % maxcore 2000
|  3> % mp2 density relaxed end
|  4> *xyz 0 1
|  5>  O       -0.1389277577     1.4141345496     0.0355274810
|  6>  C       -0.0495505865     0.0372845313     0.0118691218
|  7>  C        0.4472263206    -0.7489046188    -1.2417137669
|  8>  C       -0.5170539786    -1.8408504095    -0.7877400526
|  9>  C       -1.3373649599    -0.8809660614     0.0204528173
| 10>  C       -0.4527709458    -1.8742682385     0.7647046562
| 11>  C        0.5139560915    -0.7747382945     1.2143961149
| 12>  C       -0.8614310189    -3.0225289297     1.4989534043
| 13>  N       -1.1835733433    -3.9558060809     2.1039016121
| 14>  H        0.7508862684     1.7852232638     0.0243379631
| 15>  H        0.0883699173    -0.2740514769    -2.1582921052
| 16>  H        1.5159436054    -0.9761265334    -1.3192002196
| 17>  H       -0.8572826038    -2.7142601255    -1.3269245812
| 18>  H       -2.3968338059    -0.6905614179     0.0998674796
| 19>  H        1.5860909494    -0.9972852951     1.2325978373
| 20>  H        0.1936275578    -0.3408816227     2.1640981678
| 21> *
| 22>
| 23>                          ****END OF INPUT****

CARTESIAN COORDINATES (ANGSTROEM)
---------------------------------
  O     -0.138928    1.414135    0.035527
  C     -0.049551    0.037285    0.011869
  C      0.447226   -0.748905   -1.241714
  C     -0.517054   -1.840850   -0.787740
  C     -1.337365   -0.880966    0.020453
  C     -0.452771   -1.874268    0.764705
  C      0.513956   -0.774738    1.214396
  C     -0.861431   -3.022529    1.498953
  N     -1.183573   -3.955806    2.103902
  H      0.750886    1.785223    0.024338
  H      0.088370   -0.274051   -2.158292
  H      1.515944   -0.976127   -1.319200
  H     -0.857283   -2.714260   -1.326925
  H     -2.396834   -0.690561    0.099867
  H      1.586091   -0.997285    1.232598
  H      0.193628   -0.340882    2.164098

 Total Charge           Charge          ....    0
 Multiplicity           Mult            ....    1
 Number of Electrons    NEL             ....   64
 Basis Dimension        Dim             ....  321

ORBITAL ENERGIES
----------------

  NO   OCC          E(Eh)            E(eV)
   0   2.0000     -20.587205      -560.2063
   1   2.0000     -15.567032      -423.6005
   2   2.0000     -11.323791      -308.1360
   3   2.0000     -11.290323      -307.2253
   4   2.0000     -11.273261      -306.7610
   5   2.0000     -11.272365      -306.7367
   6   2.0000     -11.266823      -306.5858
   7   2.0000     -11.254901      -306.2614
   8   2.0000     -11.249950      -306.1267
   9   2.0000      -1.402048       -38.1517
  10   2.0000      -1.264678       -34.4136
  11   2.0000      -1.210120       -32.9290
  12   2.0000      -1.017456       -27.6864
  13   2.0000      -0.993652       -27.0386
  14   2.0000      -0.907383       -24.6911
  15   2.0000      -0.832387       -22.6504
  16   2.0000      -0.768099       -20.9010
  17   2.0000      -0.752232       -20.4693
  18   2.0000      -0.672864       -18.3096
  19   2.0000      -0.656881       -17.8746
  20   2.0000      -0.637481       -17.3467
  21   2.0000      -0.617135       -16.7931
  22   2.0000      -0.589678       -16.0459
  23   2.0000      -0.557113       -15.1598
  24   2.0000      -0.548441       -14.9238
  25   2.0000      -0.544341       -14.8123
  26   2.0000      -0.507198       -13.8016
  27   2.0000      -0.482539       -13.1306
  28   2.0000      -0.464951       -12.6520
  29   2.0000      -0.434332       -11.8188
  30   2.0000      -0.413022       -11.2389
  31   2.0000      -0.389538       -10.5999
  32   0.0000       0.118177         3.2158
  33   0.0000       0.141096         3.8394
  34   0.0000       0.154289         4.1984
  35   0.0000       0.162782         4.4295
  36   0.0000       0.168876         4.5953

MULLIKEN ATOMIC CHARGES
-----------------------
   0 O :   -0.449496
   1 C :    0.218539
   2 C :   -0.206089
   3 C :   -0.164902
   4 C :   -0.182158
   5 C :    0.127729
   6 C :   -0.187897
   7 C :   -0.276639
   8 N :   -0.043491
   9 H :    0.328363
  10 H :    0.126429
  11 H :    0.120685
  12 H :    0.159482
  13 H :    0.174975
  14 H :    0.124147
  15 H :    0.130323
Sum of atomic charges:   -0.0000000

LOEWDIN ATOMIC CHARGES
----------------------
   0 O :    0.036742
   1 C :   -0.312200
   2 C :   -0.177875
   3 C :   -0.119606
   4 C :   -0.054971
   5 C :   -0.176226
   6 C :   -0.141312
   7 C :   -0.159022
   8 N :    0.066023
   9 H :    0.188854
  10 H :    0.146962
  11 H :    0.127610
  12 H :    0.147981
  13 H :    0.145941
  14 H :    0.130846
  15 H :    0.150251

  Mayer bond orders larger than 0.1
B(  0-O ,  1-C ) :   1.0203 B(  0-O ,  9-H ) :   0.8290 B(  1-C ,  2-C ) :   0.9410
B(  1-C ,  4-C ) :   0.8941 B(  1-C ,  6-C ) :   0.9575 B(  2-C ,  3-C ) :   0.9426
B(  2-C , 10-H ) :   0.9187 B(  2-C , 11-H ) :   0.9122 B(  3-C ,  4-C ) :   0.8756
B(  3-C ,  5-C ) :   0.7806 B(  3-C , 12-H ) :   0.9247 B(  4-C ,  5-C ) :   0.8230
B(  4-C , 13-H ) :   0.8873 B(  5-C ,  6-C ) :   0.9263 B(  5-C ,  7-C ) :   0.8850
B(  6-C , 14-H ) :   0.9068 B(  6-C , 15-H ) :   0.9115 B(  7-C ,  8-N ) :   2.8964

MP2 TOTAL ENERGY:     -400.022508642 Eh
FINAL SINGLE POINT ENERGY      -400.022508642183

DIPOLE MOMENT
-------------
                                X             Y             Z
Electronic contribution:     -2.36871      -2.76675       2.74068
Nuclear contribution   :      3.26606       4.01178      -3.72242
                        -----------------------------------------
Total Dipole Moment    :      0.89735       1.24503      -0.98174
                        -----------------------------------------
Magnitude (a.u.)       :      1.82185
Magnitude (Debye)      :      4.63078

                             ****ORCA TERMINATED NORMALLY****
TOTAL RUN TIME: 0 days 0 hours 22 minutes 55 seconds 837 msec
