                         Program Version 3.0.3 - RELEASE   -
|  1> ! RI-MP2 RIJK def2-TZVP def2-TZVP/C def2-TZVP/JK TIGHTSCF
|  2> % maxcore 2000
|  3> % mp2 density relaxed end
|  4> *xyz 0 1
|  5>  C       -0.0072586202     1.4795841355    -0.0341404173
|  6>  C       -0.0244681130    -0.0111154530     0.0138716396
|  7>  O        0.8503198031    -0.7240059626    -0.8709803857
|  8>  C       -0.0244273782    -1.8893664279    -0.7776222966
|  9>  C        0.5670962557    -2.7966619914     0.2893351830
| 10>  O        0.5602192183    -1.9841955759     1.4711696606
| 11>  C       -0.3079061437    -0.9021588149     1.2202141288
| 12>  C       -1.1136900732    -1.0699179940    -0.0387794646
| 13>  C       -2.5984941297    -1.0782404503    -0.2402796719
| 14>  H        0.9813858910     1.8585930465     0.2472266231
| 15>  H       -0.2402322450     1.8447928626    -1.0397216947
| 16>  H       -0.7403443136     1.8942036524     0.6644026187
| 17>  H       -0.2375579727    -2.3366700001    -1.7501805166
| 18>  H       -0.0369255226    -3.7062882151     0.4367838663
| 19>  H        1.5993386562    -3.0790690970     0.0623589067
| 20>  H       -0.7380487103    -0.4718909190     2.1179552041
| 21>  H       -3.0808852291    -0.3173899742     0.3817561060
| 22>  H       -2.8671540157    -0.8737161807    -1.2827859085
| 23>  H       -3.0325325675    -2.0471266209     0.0344493388
| 24> *
| 25>
| 26>                          ****END OF INPUT****

CARTESIAN COORDINATES (ANGSTROEM)
---------------------------------
  C     -0.007259    1.479584   -0.034140
  C     -0.024468   -0.011115    0.013872
  O      0.850320   -0.724006   -0.870980
  C     -0.024427   -1.889366   -0.777622
  C      0.567096   -2.796662    0.289335
  O      0.560219   -1.984196    1.471170
  C     -0.307906   -0.902159    1.220214
  C     -1.113690   -1.069918   -0.038779
  C     -2.598494   -1.078240   -0.240280
  H      0.981386    1.858593    0.247227
  H     -0.240232    1.844793   -1.039722
  H     -0.740344    1.894204    0.664403
  H     -0.237558   -2.336670   -1.750181
  H     -0.036926   -3.706288    0.436784
  H      1.599339   -3.079069    0.062359
  H     -0.738049   -0.471891    2.117955
  H     -3.080885   -0.317390    0.381756
  H     -2.867154   -0.873716   -1.282786
  H     -3.032533   -2.047127    0.034449

 Total Charge           Charge          ....    0
 Multiplicity           Mult            ....    1
 Number of Electrons    NEL             ....   68
 Basis Dimension        Dim             ....  339

ORBITAL ENERGIES
----------------

  NO   OCC          E(Eh)            E(eV)
   0   2.0000     -20.555758      -559.3506
   1   2.0000     -20.552087      -559.2507
   2   2.0000     -11.291573      -307.2593
   3   2.0000     -11.291565      -307.2591
   4   2.0000     -11.281758      -306.9922
   5   2.0000     -11.276099      -306.8383
   6   2.0000     -11.240557      -305.8711
   7   2.0000     -11.234250      -305.6995
   8   2.0000     -11.227103      -305.5050
   9   2.0000      -1.418221       -38.5918
  10   2.0000      -1.352328       -36.7987
  11   2.0000      -1.121028       -30.5047
  12   2.0000      -1.031087       -28.0573
  13   2.0000      -0.974982       -26.5306
  14   2.0000      -0.965438       -26.2709
  15   2.0000      -0.836212       -22.7545
  16   2.0000      -0.798162       -21.7191
  17   2.0000      -0.707324       -19.2473
  18   2.0000      -0.704244       -19.1635
  19   2.0000      -0.681183       -18.5359
  20   2.0000      -0.620133       -16.8747
  21   2.0000      -0.611347       -16.6356
  22   2.0000      -0.590475       -16.0676
  23   2.0000      -0.577051       -15.7024
  24   2.0000      -0.570479       -15.5235
  25   2.0000      -0.563551       -15.3350
  26   2.0000      -0.559015       -15.2116
  27   2.0000      -0.533109       -14.5066
  28   2.0000      -0.525618       -14.3028
  29   2.0000      -0.491604       -13.3772
  30   2.0000      -0.480475       -13.0744
  31   2.0000      -0.442658       -12.0453
  32   2.0000      -0.384715       -10.4686
  33   2.0000      -0.353572        -9.6212
  34   0.0000       0.126707         3.4479
  35   0.0000       0.157100         4.2749
  36   0.0000       0.171939         4.6787
  37   0.0000       0.179270         4.8782
  38   0.0000       0.184072         5.0089

MULLIKEN ATOMIC CHARGES
-----------------------
   0 C :   -0.428126
   1 C :    0.156020
   2 O :   -0.325895
   3 C :    0.068079
   4 C :   -0.034834
   5 O :   -0.316796
   6 C :    0.038070
   7 C :   -0.041449
   8 C :   -0.411462
   9 H :    0.151611
  10 H :    0.140082
  11 H :    0.129553
  12 H :    0.126977
  13 H :    0.086854
  14 H :    0.118213
  15 H :    0.127441
  16 H :    0.134393
  17 H :    0.140823
  18 H :    0.140446
Sum of atomic charges:   -0.0000000

LOEWDIN ATOMIC CHARGES
----------------------
   0 C :   -0.268795
   1 C :   -0.268603
   2 O :    0.188630
   3 C :   -0.212290
   4 C :   -0.269394
   5 O :    0.175960
   6 C :   -0.225528
   7 C :   -0.182169
   8 C :   -0.276801
   9 H :    0.137300
  10 H :    0.132164
  11 H :    0.134863
  12 H :    0.139820
  13 H :    0.122987
  14 H :    0.132520
  15 H :    0.145580
  16 H :    0.132669
  17 H :    0.129912
  18 H :    0.131175

  Mayer bond orders larger than 0.1
B(  0-C ,  1-C ) :   0.8719 B(  0-C ,  9-H ) :   0.9390 B(  0-C , 10-H ) :   0.9369
B(  0-C , 11-H ) :   0.9334 B(  1-C ,  2-O ) :   0.9692 B(  1-C ,  6-C ) :   0.8371
B(  1-C ,  7-C ) :   0.8525 B(  2-O ,  3-C ) :   0.8948 B(  3-C ,  4-C ) :   0.9830
B(  3-C ,  7-C ) :   0.9169 B(  3-C , 12-H ) :   0.8991 B(  4-C ,  5-O ) :   0.9493
B(  4-C , 13-H ) :   0.9114 B(  4-C , 14-H ) :   0.9080 B(  5-O ,  6-C ) :   0.9655
B(  6-C ,  7-C ) :   0.8600 B(  6-C , 15-H ) :   0.9340 B(  7-C ,  8-C ) :   0.8295
B(  8-C , 16-H ) :   0.9370 B(  8-C , 17-H ) :   0.9484 B(  8-C , 18-H ) :   0.9362

MP2 TOTAL ENERGY:     -422.280394822 Eh
FINAL SINGLE POINT ENERGY      -422.280394821747

DIPOLE MOMENT
-------------
                                X             Y             Z
Electronic contribution:      4.80301      -2.52552       0.96534
Nuclear contribution   :     -5.76129       2.56530      -1.20535
                        -----------------------------------------
Total Dipole Moment    :     -0.95828       0.03978      -0.24002
                        -----------------------------------------
Magnitude (a.u.)       :      0.98868
Magnitude (Debye)      :      2.51303

                             ****ORCA TERMINATED NORMALLY****
TOTAL RUN TIME: 0 days 0 hours 17 minutes 19 seconds 818 msec
