                         Program Version 3.0.3 - RELEASE   -
|  1> ! RI-MP2 RIJK def2-TZVP def2-TZVP/C def2-TZVP/JK TIGHTSCF
|  2> % maxcore 2000
|  3> % mp2 density relaxed end
|  4> *xyz 0 1
|  5>  O        0.0691542326     1.3535570478    -0.0620291029
|  6>  C        0.0188770148    -0.0391533615    -0.0288598096
|  7>  C       -0.4467031009    -0.7122631525     1.2605032827
|  8>  O       -0.8747195694     0.1448522349     2.2879414387
|  9>  C       -1.3158171719    -0.7298277262     0.0411755179
| 10>  C       -2.6972021699    -0.0896417018    -0.1411347598
| 11>  C       -3.0294756186    -1.3682843686    -0.9591845014
| 12>  O       -3.9606628118    -1.7748089625    -1.5956518725
| 13>  N       -1.7818726542    -1.8973902664    -0.6839863204
| 14>  H       -0.3388061509     1.6561260974     0.7614505728
| 15>  H        0.8287382133    -0.4934828434    -0.5941407989
| 16>  H        0.0274990924    -1.6393368457     1.5810617505
| 17>  H       -0.1161665106     0.3355488737     2.8519891597
| 18>  H       -3.2836670343     0.0383784168     0.7693989624
| 19>  H       -2.7005509103     0.8296260438    -0.7289281752
| 20>  H       -1.2883131403    -2.6755717560    -1.0961526841
| 21> *
| 22>
| 23>                          ****END OF INPUT****

CARTESIAN COORDINATES (ANGSTROEM)
---------------------------------
  O      0.069154    1.353557   -0.062029
  C      0.018877   -0.039153   -0.028860
  C     -0.446703   -0.712263    1.260503
  O     -0.874720    0.144852    2.287941
  C     -1.315817   -0.729828    0.041176
  C     -2.697202   -0.089642   -0.141135
  C     -3.029476   -1.368284   -0.959185
  O     -3.960663   -1.774809   -1.595652
  N     -1.781873   -1.897390   -0.683986
  H     -0.338806    1.656126    0.761451
  H      0.828738   -0.493483   -0.594141
  H      0.027499   -1.639337    1.581062
  H     -0.116167    0.335549    2.851989
  H     -3.283667    0.038378    0.769399
  H     -2.700551    0.829626   -0.728928
  H     -1.288313   -2.675572   -1.096153

 Total Charge           Charge          ....    0
 Multiplicity           Mult            ....    1
 Number of Electrons    NEL             ....   68
 Basis Dimension        Dim             ....  321

ORBITAL ENERGIES
----------------

  NO   OCC          E(Eh)            E(eV)
   0   2.0000     -20.599049      -560.5286
   1   2.0000     -20.577152      -559.9328
   2   2.0000     -20.530554      -558.6648
   3   2.0000     -15.593047      -424.3084
   4   2.0000     -11.357656      -309.0575
   5   2.0000     -11.305614      -307.6414
   6   2.0000     -11.301426      -307.5274
   7   2.0000     -11.294849      -307.3485
   8   2.0000     -11.252859      -306.2059
   9   2.0000      -1.414717       -38.4964
  10   2.0000      -1.392816       -37.9004
  11   2.0000      -1.378710       -37.5166
  12   2.0000      -1.279852       -34.8266
  13   2.0000      -1.117831       -30.4177
  14   2.0000      -1.005329       -27.3564
  15   2.0000      -0.852608       -23.2007
  16   2.0000      -0.817073       -22.2337
  17   2.0000      -0.789855       -21.4931
  18   2.0000      -0.746188       -20.3048
  19   2.0000      -0.734414       -19.9844
  20   2.0000      -0.664524       -18.0826
  21   2.0000      -0.655435       -17.8353
  22   2.0000      -0.653329       -17.7780
  23   2.0000      -0.636266       -17.3137
  24   2.0000      -0.588696       -16.0192
  25   2.0000      -0.578528       -15.7425
  26   2.0000      -0.568002       -15.4561
  27   2.0000      -0.544238       -14.8095
  28   2.0000      -0.532380       -14.4868
  29   2.0000      -0.523467       -14.2443
  30   2.0000      -0.477221       -12.9858
  31   2.0000      -0.422359       -11.4930
  32   2.0000      -0.411869       -11.2075
  33   2.0000      -0.371829       -10.1180
  34   0.0000       0.112603         3.0641
  35   0.0000       0.131158         3.5690
  36   0.0000       0.155629         4.2349
  37   0.0000       0.174783         4.7561
  38   0.0000       0.178776         4.8647

MULLIKEN ATOMIC CHARGES
-----------------------
   0 O :   -0.460062
   1 C :    0.033887
   2 C :   -0.012980
   3 O :   -0.469155
   4 C :    0.099254
   5 C :   -0.230138
   6 C :    0.221254
   7 O :   -0.302112
   8 N :   -0.326419
   9 H :    0.332442
  10 H :    0.125468
  11 H :    0.118469
  12 H :    0.334122
  13 H :    0.150759
  14 H :    0.148201
  15 H :    0.237010
Sum of atomic charges:    0.0000000

LOEWDIN ATOMIC CHARGES
----------------------
   0 O :    0.006841
   1 C :   -0.289031
   2 C :   -0.289649
   3 O :   -0.001769
   4 C :   -0.245015
   5 C :   -0.149959
   6 C :   -0.418652
   7 O :    0.111980
   8 N :    0.159318
   9 H :    0.181455
  10 H :    0.140743
  11 H :    0.134424
  12 H :    0.186254
  13 H :    0.149029
  14 H :    0.150137
  15 H :    0.173893

  Mayer bond orders larger than 0.1
B(  0-O ,  1-C ) :   0.9739 B(  0-O ,  9-H ) :   0.8171 B(  1-C ,  2-C ) :   0.8650
B(  1-C ,  4-C ) :   0.8678 B(  1-C , 10-H ) :   0.9347 B(  2-C ,  3-O ) :   1.0471
B(  2-C ,  4-C ) :   0.8249 B(  2-C , 11-H ) :   0.9311 B(  3-O , 12-H ) :   0.8337
B(  4-C ,  5-C ) :   0.9006 B(  4-C ,  8-N ) :   0.8663 B(  5-C ,  6-C ) :   0.8969
B(  5-C , 13-H ) :   0.9017 B(  5-C , 14-H ) :   0.8977 B(  6-C ,  7-O ) :   2.0369
B(  6-C ,  8-N ) :   1.1350 B(  8-N , 15-H ) :   0.8544

MP2 TOTAL ENERGY:     -474.254419270 Eh
FINAL SINGLE POINT ENERGY      -474.254419270375

DIPOLE MOMENT
-------------
                                X             Y             Z
Electronic contribution:     -2.04540      -1.74044      -1.88012
Nuclear contribution   :      3.61381       1.65582       3.01601
                        -----------------------------------------
Total Dipole Moment    :      1.56841      -0.08462       1.13590
                        -----------------------------------------
Magnitude (a.u.)       :      1.93838
Magnitude (Debye)      :      4.92698

                             ****ORCA TERMINATED NORMALLY****
TOTAL RUN TIME: 0 days 0 hours 13 minutes 55 seconds 538 msec
