                         Program Version 3.0.3 - RELEASE   -
|  1> ! RI-MP2 RIJK def2-TZVP def2-TZVP/C def2-TZVP/JK TIGHTSCF
|  2> % maxcore 2000
|  3> % mp2 density relaxed end
|  4> *xyz 0 1
|  5>  O       -0.7977720060     0.8755628871     0.5527310445
|  6>  C        0.1825520399     0.9090987060    -0.1438832001
|  7>  C        1.3351127585     1.8753864392     0.0302150103
|  8>  C        1.5293596333     2.5495509604     1.4151441483
|  9>  C        2.2115175692     1.1922293244     1.7686701790
| 10>  N        2.6444799468     1.1431789368     0.3092872161
| 11>  C        3.5899617119     2.2970259383     0.2849315012
| 12>  C        2.7893618956     3.3521275012     1.0960160874
| 13>  O        3.0856799707     4.4778169763     1.3820952866
| 14>  H        0.3167856926     0.2181139615    -1.0053180380
| 15>  H        1.3754453196     2.5077378679    -0.8677940428
| 16>  H        0.7406011831     3.0281233705     1.9888368626
| 17>  H        3.0326281490     1.1850815661     2.4895250873
| 18>  H        1.5036207545     0.3943883419     1.9922377040
| 19>  H        4.5388976838     2.0364810616     0.7612586793
| 20>  H        3.7908048675     2.6274050908    -0.7378169257
| 21> *
| 22>
| 23>                          ****END OF INPUT****

CARTESIAN COORDINATES (ANGSTROEM)
---------------------------------
  O     -0.797772    0.875563    0.552731
  C      0.182552    0.909099   -0.143883
  C      1.335113    1.875386    0.030215
  C      1.529360    2.549551    1.415144
  C      2.211518    1.192229    1.768670
  N      2.644480    1.143179    0.309287
  C      3.589962    2.297026    0.284932
  C      2.789362    3.352128    1.096016
  O      3.085680    4.477817    1.382095
  H      0.316786    0.218114   -1.005318
  H      1.375445    2.507738   -0.867794
  H      0.740601    3.028123    1.988837
  H      3.032628    1.185082    2.489525
  H      1.503621    0.394388    1.992238
  H      4.538898    2.036481    0.761259
  H      3.790805    2.627405   -0.737817

 Total Charge           Charge          ....    0
 Multiplicity           Mult            ....    1
 Number of Electrons    NEL             ....   66
 Basis Dimension        Dim             ....  321

ORBITAL ENERGIES
----------------

  NO   OCC          E(Eh)            E(eV)
   0   2.0000     -20.579454      -559.9954
   1   2.0000     -20.564244      -559.5815
   2   2.0000     -15.597695      -424.4349
   3   2.0000     -11.352163      -308.9081
   4   2.0000     -11.347104      -308.7704
   5   2.0000     -11.303829      -307.5928
   6   2.0000     -11.290128      -307.2200
   7   2.0000     -11.282709      -307.0181
   8   2.0000     -11.269500      -306.6587
   9   2.0000      -1.418829       -38.6083
  10   2.0000      -1.409365       -38.3508
  11   2.0000      -1.310490       -35.6602
  12   2.0000      -1.038789       -28.2669
  13   2.0000      -1.004514       -27.3342
  14   2.0000      -0.976818       -26.5806
  15   2.0000      -0.863176       -23.4882
  16   2.0000      -0.782864       -21.3028
  17   2.0000      -0.750746       -20.4288
  18   2.0000      -0.710989       -19.3470
  19   2.0000      -0.695372       -18.9220
  20   2.0000      -0.682558       -18.5734
  21   2.0000      -0.660436       -17.9714
  22   2.0000      -0.611615       -16.6429
  23   2.0000      -0.603320       -16.4172
  24   2.0000      -0.580524       -15.7969
  25   2.0000      -0.568343       -15.4654
  26   2.0000      -0.546894       -14.8817
  27   2.0000      -0.540637       -14.7115
  28   2.0000      -0.497457       -13.5365
  29   2.0000      -0.485886       -13.2216
  30   2.0000      -0.461268       -12.5517
  31   2.0000      -0.444685       -12.1005
  32   2.0000      -0.382300       -10.4029
  33   0.0000       0.111503         3.0341
  34   0.0000       0.127871         3.4796
  35   0.0000       0.136376         3.7110
  36   0.0000       0.152571         4.1517
  37   0.0000       0.163529         4.4499

MULLIKEN ATOMIC CHARGES
-----------------------
   0 O :   -0.248916
   1 C :    0.047734
   2 C :   -0.017264
   3 C :    0.008942
   4 C :   -0.238891
   5 N :   -0.200287
   6 C :   -0.162165
   7 C :    0.071325
   8 O :   -0.248853
   9 H :    0.098811
  10 H :    0.138810
  11 H :    0.160846
  12 H :    0.140727
  13 H :    0.150042
  14 H :    0.151095
  15 H :    0.148044
Sum of atomic charges:   -0.0000000

LOEWDIN ATOMIC CHARGES
----------------------
   0 O :    0.151442
   1 C :   -0.269669
   2 C :   -0.221692
   3 C :   -0.160694
   4 C :   -0.199705
   5 N :    0.106316
   6 C :   -0.240425
   7 C :   -0.311453
   8 O :    0.164088
   9 H :    0.120430
  10 H :    0.157285
  11 H :    0.147238
  12 H :    0.130724
  13 H :    0.140166
  14 H :    0.143280
  15 H :    0.142667

  Mayer bond orders larger than 0.1
B(  0-O ,  1-C ) :   2.0165 B(  1-C ,  2-C ) :   0.8372 B(  1-C ,  9-H ) :   0.9507
B(  2-C ,  3-C ) :   0.8519 B(  2-C ,  5-N ) :   0.8508 B(  2-C , 10-H ) :   0.8967
B(  3-C ,  4-C ) :   0.9037 B(  3-C ,  6-C ) :  -0.1382 B(  3-C ,  7-C ) :   0.8137
B(  3-C , 11-H ) :   0.8898 B(  4-C ,  5-N ) :   0.8897 B(  4-C , 12-H ) :   0.9282
B(  4-C , 13-H ) :   0.9156 B(  5-N ,  6-C ) :   0.9085 B(  6-C ,  7-C ) :   0.8975
B(  6-C , 14-H ) :   0.9135 B(  6-C , 15-H ) :   0.9140 B(  7-C ,  8-O ) :   2.0478

MP2 TOTAL ENERGY:     -437.141617852 Eh
FINAL SINGLE POINT ENERGY      -437.141617852461

DIPOLE MOMENT
-------------
                                X             Y             Z
Electronic contribution:     -1.97200       1.94251       0.22068
Nuclear contribution   :      2.32615      -2.37746      -0.56308
                        -----------------------------------------
Total Dipole Moment    :      0.35415      -0.43496      -0.34239
                        -----------------------------------------
Magnitude (a.u.)       :      0.65714
Magnitude (Debye)      :      1.67033

                             ****ORCA TERMINATED NORMALLY****
TOTAL RUN TIME: 0 days 0 hours 15 minutes 31 seconds 350 msec
