                         Program Version 3.0.3 - RELEASE   -
|  1> ! RI-MP2 RIJK def2-TZVP def2-TZVP/C def2-TZVP/JK TIGHTSCF
|  2> % maxcore 2000
|  3> % mp2 density relaxed end
|  4> *xyz 0 1
|  5>  C       -0.1675625692     1.4885761053    -0.0312035848
|  6>  C        0.0326559554     0.0127660592     0.0075042922
|  7>  C        0.0370803832    -1.1004570216    -0.9799579097
|  8>  N        1.2823295177    -1.6771629251    -0.4592411953
|  9>  C        0.9701102488    -0.9557192689     0.8151252855
| 10>  C       -0.3528339791    -1.5711897383     1.3586384842
| 11>  O       -0.7037183190    -1.9709928016     2.4338505589
| 12>  C       -1.0555750227    -1.1219708862     0.1137347356
| 13>  O       -2.3906027347    -0.9566774971    -0.1343018708
| 14>  H        0.7047622926     1.9979017606    -0.4533785903
| 15>  H       -1.0399402312     1.7337566816    -0.6446377949
| 16>  H       -0.3433179573     1.8884577401     0.9727546836
| 17>  H       -0.2371835332    -1.0949698034    -2.0301614554
| 18>  H        1.2513792039    -2.6944235496    -0.3507317241
| 19>  H        1.7894260517    -0.6889856974     1.4785271536
| 20>  H       -2.7000245569    -1.6715402477    -0.7017132883
| 21> *
| 22>
| 23>                          ****END OF INPUT****

CARTESIAN COORDINATES (ANGSTROEM)
---------------------------------
  C     -0.167563    1.488576   -0.031204
  C      0.032656    0.012766    0.007504
  C      0.037080   -1.100457   -0.979958
  N      1.282330   -1.677163   -0.459241
  C      0.970110   -0.955719    0.815125
  C     -0.352834   -1.571190    1.358638
  O     -0.703718   -1.970993    2.433851
  C     -1.055575   -1.121971    0.113735
  O     -2.390603   -0.956677   -0.134302
  H      0.704762    1.997902   -0.453379
  H     -1.039940    1.733757   -0.644638
  H     -0.343318    1.888458    0.972755
  H     -0.237184   -1.094970   -2.030161
  H      1.251379   -2.694424   -0.350732
  H      1.789426   -0.688986    1.478527
  H     -2.700025   -1.671540   -0.701713

 Total Charge           Charge          ....    0
 Multiplicity           Mult            ....    1
 Number of Electrons    NEL             ....   66
 Basis Dimension        Dim             ....  321

ORBITAL ENERGIES
----------------

  NO   OCC          E(Eh)            E(eV)
   0   2.0000     -20.596681      -560.4642
   1   2.0000     -20.545965      -559.0841
   2   2.0000     -15.576495      -423.8580
   3   2.0000     -11.337114      -308.4986
   4   2.0000     -11.312482      -307.8283
   5   2.0000     -11.294559      -307.3406
   6   2.0000     -11.288763      -307.1829
   7   2.0000     -11.274704      -306.8003
   8   2.0000     -11.242973      -305.9368
   9   2.0000      -1.414582       -38.4927
  10   2.0000      -1.387845       -37.7652
  11   2.0000      -1.308111       -35.5955
  12   2.0000      -1.104393       -30.0521
  13   2.0000      -0.999215       -27.1900
  14   2.0000      -0.966626       -26.3032
  15   2.0000      -0.870614       -23.6906
  16   2.0000      -0.779764       -21.2184
  17   2.0000      -0.750991       -20.4355
  18   2.0000      -0.702997       -19.1295
  19   2.0000      -0.691168       -18.8076
  20   2.0000      -0.655818       -17.8457
  21   2.0000      -0.647772       -17.6268
  22   2.0000      -0.610261       -16.6060
  23   2.0000      -0.591554       -16.0970
  24   2.0000      -0.577264       -15.7082
  25   2.0000      -0.561671       -15.2838
  26   2.0000      -0.542391       -14.7592
  27   2.0000      -0.533347       -14.5131
  28   2.0000      -0.490942       -13.3592
  29   2.0000      -0.489723       -13.3261
  30   2.0000      -0.430652       -11.7186
  31   2.0000      -0.385169       -10.4810
  32   2.0000      -0.361933        -9.8487
  33   0.0000       0.118637         3.2283
  34   0.0000       0.134931         3.6717
  35   0.0000       0.144717         3.9379
  36   0.0000       0.168229         4.5777
  37   0.0000       0.180142         4.9019

MULLIKEN ATOMIC CHARGES
-----------------------
   0 C :   -0.426587
   1 C :    0.025018
   2 C :   -0.154890
   3 N :   -0.283556
   4 C :   -0.034292
   5 C :    0.102392
   6 O :   -0.268931
   7 C :    0.184926
   8 O :   -0.447150
   9 H :    0.154395
  10 H :    0.150621
  11 H :    0.151252
  12 H :    0.153920
  13 H :    0.205305
  14 H :    0.146791
  15 H :    0.340785
Sum of atomic charges:   -0.0000000

LOEWDIN ATOMIC CHARGES
----------------------
   0 C :   -0.265396
   1 C :   -0.124615
   2 C :   -0.194444
   3 N :    0.037390
   4 C :   -0.144581
   5 C :   -0.298967
   6 O :    0.148222
   7 C :   -0.266970
   8 O :    0.059985
   9 H :    0.136134
  10 H :    0.140325
  11 H :    0.137954
  12 H :    0.142022
  13 H :    0.160555
  14 H :    0.137788
  15 H :    0.194597

  Mayer bond orders larger than 0.1
B(  0-C ,  1-C ) :   0.8094 B(  0-C ,  9-H ) :   0.9494 B(  0-C , 10-H ) :   0.9360
B(  0-C , 11-H ) :   0.9337 B(  1-C ,  2-C ) :   0.8356 B(  1-C ,  4-C ) :   0.8153
B(  1-C ,  7-C ) :   0.7420 B(  2-C ,  3-N ) :   1.0071 B(  2-C ,  7-C ) :   0.7877
B(  2-C , 12-H ) :   0.9139 B(  3-N ,  4-C ) :   0.9905 B(  3-N , 13-H ) :   0.8760
B(  4-C ,  5-C ) :   0.8659 B(  4-C ,  7-C ) :  -0.1284 B(  4-C , 14-H ) :   0.9038
B(  5-C ,  6-O ) :   2.0441 B(  5-C ,  7-C ) :   0.9367 B(  7-C ,  8-O ) :   1.0449
B(  8-O , 15-H ) :   0.8282

MP2 TOTAL ENERGY:     -437.107887146 Eh
FINAL SINGLE POINT ENERGY      -437.107887146037

DIPOLE MOMENT
-------------
                                X             Y             Z
Electronic contribution:     -1.43422      -5.06949       2.69973
Nuclear contribution   :      1.45674       5.24810      -3.91445
                        -----------------------------------------
Total Dipole Moment    :      0.02251       0.17861      -1.21472
                        -----------------------------------------
Magnitude (a.u.)       :      1.22798
Magnitude (Debye)      :      3.12128

                             ****ORCA TERMINATED NORMALLY****
TOTAL RUN TIME: 0 days 0 hours 16 minutes 4 seconds 887 msec
