                         Program Version 3.0.3 - RELEASE   -
|  1> ! RI-MP2 RIJK def2-TZVP def2-TZVP/C def2-TZVP/JK TIGHTSCF
|  2> % maxcore 2000
|  3> % mp2 density relaxed end
|  4> *xyz 0 1
|  5>  C        0.3172361314     1.5006679378    -0.1615114341
|  6>  C       -0.0296311667     0.0099439399    -0.0166112331
|  7>  N        0.3660787467    -0.7988479689    -1.1884092934
|  8>  C        1.5644664357    -1.5849866328    -0.8681023601
|  9>  C        2.9047262050    -0.8376175834    -1.0300997768
| 10>  O        3.0150704159    -0.6463236834     0.4046825206
| 11>  C        1.8434226266    -1.4668117908     0.6470354746
| 12>  C        0.7033294405    -0.6000143624     1.1920732287
| 13>  O        0.4322519003    -0.4209531752     2.3501966838
| 14>  H        1.3954545288     1.6428288678    -0.2703935023
| 15>  H       -0.1806922373     1.9163685583    -1.0412748706
| 16>  H       -0.0104301093     2.0464318594     0.7280849924
| 17>  H       -1.1071758672    -0.0812503853     0.1551202672
| 18>  H       -0.3880368601    -1.4211063704    -1.4467951652
| 19>  H        1.5133844268    -2.5758367333    -1.3189346849
| 20>  H        3.7357408157    -1.4435225113    -1.4112354137
| 21>  H        2.8493042138     0.1073292568    -1.5792027757
| 22>  H        2.0567025134    -2.3458770229     1.2609573725
| 23> *
| 24>
| 25>                          ****END OF INPUT****

CARTESIAN COORDINATES (ANGSTROEM)
---------------------------------
  C      0.317236    1.500668   -0.161511
  C     -0.029631    0.009944   -0.016611
  N      0.366079   -0.798848   -1.188409
  C      1.564466   -1.584987   -0.868102
  C      2.904726   -0.837618   -1.030100
  O      3.015070   -0.646324    0.404683
  C      1.843423   -1.466812    0.647035
  C      0.703329   -0.600014    1.192073
  O      0.432252   -0.420953    2.350197
  H      1.395455    1.642829   -0.270394
  H     -0.180692    1.916369   -1.041275
  H     -0.010430    2.046432    0.728085
  H     -1.107176   -0.081250    0.155120
  H     -0.388037   -1.421106   -1.446795
  H      1.513384   -2.575837   -1.318935
  H      3.735741   -1.443523   -1.411235
  H      2.849304    0.107329   -1.579203
  H      2.056703   -2.345877    1.260957

 Total Charge           Charge          ....    0
 Multiplicity           Mult            ....    1
 Number of Electrons    NEL             ....   68
 Basis Dimension        Dim             ....  333

ORBITAL ENERGIES
----------------

  NO   OCC          E(Eh)            E(eV)
   0   2.0000     -20.567670      -559.6748
   1   2.0000     -20.558973      -559.4381
   2   2.0000     -15.566475      -423.5853
   3   2.0000     -11.332750      -308.3798
   4   2.0000     -11.297435      -307.4188
   5   2.0000     -11.288322      -307.1709
   6   2.0000     -11.280830      -306.9670
   7   2.0000     -11.276755      -306.8561
   8   2.0000     -11.224305      -305.4289
   9   2.0000      -1.407660       -38.3044
  10   2.0000      -1.388213       -37.7752
  11   2.0000      -1.236110       -33.6363
  12   2.0000      -1.039388       -28.2832
  13   2.0000      -1.000357       -27.2211
  14   2.0000      -0.968713       -26.3600
  15   2.0000      -0.880534       -23.9606
  16   2.0000      -0.782312       -21.2878
  17   2.0000      -0.762066       -20.7369
  18   2.0000      -0.728067       -19.8117
  19   2.0000      -0.664111       -18.0714
  20   2.0000      -0.649335       -17.6693
  21   2.0000      -0.638564       -17.3762
  22   2.0000      -0.628937       -17.1142
  23   2.0000      -0.611589       -16.6422
  24   2.0000      -0.583110       -15.8672
  25   2.0000      -0.567952       -15.4548
  26   2.0000      -0.539340       -14.6762
  27   2.0000      -0.528957       -14.3936
  28   2.0000      -0.506455       -13.7814
  29   2.0000      -0.491071       -13.3627
  30   2.0000      -0.478780       -13.0283
  31   2.0000      -0.462855       -12.5949
  32   2.0000      -0.419194       -11.4068
  33   2.0000      -0.370741       -10.0884
  34   0.0000       0.111659         3.0384
  35   0.0000       0.121982         3.3193
  36   0.0000       0.156798         4.2667
  37   0.0000       0.164162         4.4671
  38   0.0000       0.178701         4.8627

MULLIKEN ATOMIC CHARGES
-----------------------
   0 C :   -0.413085
   1 C :    0.011793
   2 N :   -0.351400
   3 C :   -0.094125
   4 C :   -0.022968
   5 O :   -0.335059
   6 C :    0.115397
   7 C :    0.128862
   8 O :   -0.254409
   9 H :    0.139941
  10 H :    0.135623
  11 H :    0.140992
  12 H :    0.121410
  13 H :    0.218184
  14 H :    0.128213
  15 H :    0.107062
  16 H :    0.109870
  17 H :    0.113700
Sum of atomic charges:    0.0000000

LOEWDIN ATOMIC CHARGES
----------------------
   0 C :   -0.281885
   1 C :   -0.280203
   2 N :    0.023289
   3 C :   -0.256894
   4 C :   -0.244811
   5 O :    0.139155
   6 C :   -0.224164
   7 C :   -0.276179
   8 O :    0.174940
   9 H :    0.127459
  10 H :    0.125232
  11 H :    0.130557
  12 H :    0.154113
  13 H :    0.171531
  14 H :    0.138401
  15 H :    0.119792
  16 H :    0.120274
  17 H :    0.139395

  Mayer bond orders larger than 0.1
B(  0-C ,  1-C ) :   0.8970 B(  0-C ,  9-H ) :   0.9296 B(  0-C , 10-H ) :   0.9326
B(  0-C , 11-H ) :   0.9325 B(  1-C ,  2-N ) :   0.9384 B(  1-C ,  7-C ) :   0.8754
B(  1-C , 12-H ) :   0.9245 B(  2-N ,  3-C ) :   1.0300 B(  2-N , 13-H ) :   0.8789
B(  3-C ,  4-C ) :   0.9437 B(  3-C ,  6-C ) :   0.9327 B(  3-C , 14-H ) :   0.9218
B(  4-C ,  5-O ) :   0.9125 B(  4-C , 15-H ) :   0.9209 B(  4-C , 16-H ) :   0.9058
B(  5-O ,  6-C ) :   0.9310 B(  6-C ,  7-C ) :   0.8696 B(  6-C , 17-H ) :   0.9186
B(  7-C ,  8-O ) :   2.0335

MP2 TOTAL ENERGY:     -438.351044706 Eh
FINAL SINGLE POINT ENERGY      -438.351044705514

DIPOLE MOMENT
-------------
                                X             Y             Z
Electronic contribution:      0.81411      -3.07396       4.74670
Nuclear contribution   :     -1.22550       2.37403      -5.89326
                        -----------------------------------------
Total Dipole Moment    :     -0.41138      -0.69993      -1.14656
                        -----------------------------------------
Magnitude (a.u.)       :      1.40489
Magnitude (Debye)      :      3.57095

                             ****ORCA TERMINATED NORMALLY****
TOTAL RUN TIME: 0 days 0 hours 19 minutes 20 seconds 640 msec
