                         Program Version 3.0.3 - RELEASE   -
|  1> ! RI-MP2 RIJK def2-TZVP def2-TZVP/C def2-TZVP/JK TIGHTSCF
|  2> % maxcore 2000
|  3> % mp2 density relaxed end
|  4> *xyz 0 1
|  5>  C       -0.0825429843     1.3850103621     0.0209286364
|  6>  O        0.1116350414    -0.0084093721    -0.0628101054
|  7>  C        0.6917902017    -0.5945810386     1.0941567420
|  8>  C       -0.2852864009    -0.7268751638     2.2706021364
|  9>  C        0.3447657996    -1.6098678659     3.3523057028
| 10>  C        0.5506848620    -3.0368718515     2.8363489284
| 11>  N        1.2264659027    -3.1213364097     1.5272807122
| 12>  C        0.3890879685    -3.0756663098     0.3320273218
| 13>  C        1.2726022745    -1.9296501328     0.6639266816
| 14>  H        0.8541028646     1.9127028001     0.2619241999
| 15>  H       -0.4308498115     1.7198195814    -0.9594366283
| 16>  H       -0.8364749159     1.6653834393     0.7710434612
| 17>  H        1.5307382128     0.0411600378     1.4291031312
| 18>  H       -0.5228643905     0.2640432298     2.6700040154
| 19>  H       -1.2280181626    -1.1622214155     1.9170711303
| 20>  H        1.3111753672    -1.1823261770     3.6510066877
| 21>  H       -0.2772746272    -1.6353607435     4.2535852354
| 22>  H        1.1525120928    -3.6061048115     3.5540976187
| 23>  H       -0.4214979396    -3.5429408025     2.7706778862
| 24>  H        0.6611544907    -3.7631558733    -0.4652665312
| 25>  H       -0.6834214089    -2.9398361407     0.4599387648
| 26>  H        2.2059233829    -1.8342123226     0.1122634924
| 27> *
| 28>
| 29>                          ****END OF INPUT****

CARTESIAN COORDINATES (ANGSTROEM)
---------------------------------
  C     -0.082543    1.385010    0.020929
  O      0.111635   -0.008409   -0.062810
  C      0.691790   -0.594581    1.094157
  C     -0.285286   -0.726875    2.270602
  C      0.344766   -1.609868    3.352306
  C      0.550685   -3.036872    2.836349
  N      1.226466   -3.121336    1.527281
  C      0.389088   -3.075666    0.332027
  C      1.272602   -1.929650    0.663927
  H      0.854103    1.912703    0.261924
  H     -0.430850    1.719820   -0.959437
  H     -0.836475    1.665383    0.771043
  H      1.530738    0.041160    1.429103
  H     -0.522864    0.264043    2.670004
  H     -1.228018   -1.162221    1.917071
  H      1.311175   -1.182326    3.651007
  H     -0.277275   -1.635361    4.253585
  H      1.152512   -3.606105    3.554098
  H     -0.421498   -3.542941    2.770678
  H      0.661154   -3.763156   -0.465267
  H     -0.683421   -2.939836    0.459939
  H      2.205923   -1.834212    0.112263

 Total Charge           Charge          ....    0
 Multiplicity           Mult            ....    1
 Number of Electrons    NEL             ....   70
 Basis Dimension        Dim             ....  357

ORBITAL ENERGIES
----------------

  NO   OCC          E(Eh)            E(eV)
   0   2.0000     -20.554196      -559.3081
   1   2.0000     -15.550090      -423.1394
   2   2.0000     -11.283036      -307.0270
   3   2.0000     -11.271067      -306.7013
   4   2.0000     -11.250488      -306.1414
   5   2.0000     -11.247392      -306.0571
   6   2.0000     -11.243922      -305.9627
   7   2.0000     -11.225517      -305.4618
   8   2.0000     -11.223929      -305.4186
   9   2.0000      -1.374879       -37.4124
  10   2.0000      -1.264544       -34.4100
  11   2.0000      -1.073373       -29.2080
  12   2.0000      -1.023764       -27.8580
  13   2.0000      -0.933933       -25.4136
  14   2.0000      -0.877690       -23.8832
  15   2.0000      -0.857814       -23.3423
  16   2.0000      -0.809937       -22.0395
  17   2.0000      -0.739164       -20.1137
  18   2.0000      -0.691238       -18.8096
  19   2.0000      -0.664701       -18.0874
  20   2.0000      -0.644226       -17.5303
  21   2.0000      -0.636671       -17.3247
  22   2.0000      -0.596757       -16.2386
  23   2.0000      -0.594113       -16.1666
  24   2.0000      -0.588929       -16.0256
  25   2.0000      -0.554585       -15.0910
  26   2.0000      -0.523737       -14.2516
  27   2.0000      -0.512229       -13.9385
  28   2.0000      -0.496257       -13.5038
  29   2.0000      -0.483700       -13.1622
  30   2.0000      -0.478978       -13.0337
  31   2.0000      -0.441749       -12.0206
  32   2.0000      -0.430351       -11.7104
  33   2.0000      -0.416042       -11.3211
  34   2.0000      -0.358307        -9.7500
  35   0.0000       0.134946         3.6721
  36   0.0000       0.152851         4.1593
  37   0.0000       0.160860         4.3772
  38   0.0000       0.175693         4.7809
  39   0.0000       0.187421         5.1000

MULLIKEN ATOMIC CHARGES
-----------------------
   0 C :   -0.229909
   1 O :   -0.287392
   2 C :    0.032995
   3 C :   -0.236699
   4 C :   -0.228614
   5 C :   -0.152087
   6 N :   -0.220431
   7 C :   -0.200882
   8 C :    0.003796
   9 H :    0.110304
  10 H :    0.143128
  11 H :    0.113106
  12 H :    0.067625
  13 H :    0.128994
  14 H :    0.117839
  15 H :    0.114589
  16 H :    0.123452
  17 H :    0.127243
  18 H :    0.115210
  19 H :    0.121779
  20 H :    0.116224
  21 H :    0.119728
Sum of atomic charges:    0.0000000

LOEWDIN ATOMIC CHARGES
----------------------
   0 C :   -0.361079
   1 O :    0.160342
   2 C :   -0.316849
   3 C :   -0.245448
   4 C :   -0.264682
   5 C :   -0.284234
   6 N :    0.111669
   7 C :   -0.241655
   8 C :   -0.229761
   9 H :    0.101639
  10 H :    0.114265
  11 H :    0.100199
  12 H :    0.141068
  13 H :    0.137385
  14 H :    0.141348
  15 H :    0.140758
  16 H :    0.139484
  17 H :    0.132591
  18 H :    0.130740
  19 H :    0.123905
  20 H :    0.124975
  21 H :    0.143343

  Mayer bond orders larger than 0.1
B(  0-C ,  1-O ) :   0.9221 B(  0-C ,  9-H ) :   0.9342 B(  0-C , 10-H ) :   0.9412
B(  0-C , 11-H ) :   0.9344 B(  1-O ,  2-C ) :   0.9944 B(  2-C ,  3-C ) :   0.9032
B(  2-C ,  8-C ) :   0.9294 B(  2-C , 12-H ) :   0.9409 B(  3-C ,  4-C ) :   0.9019
B(  3-C , 13-H ) :   0.9297 B(  3-C , 14-H ) :   0.9330 B(  4-C ,  5-C ) :   0.9464
B(  4-C , 15-H ) :   0.9269 B(  4-C , 16-H ) :   0.9224 B(  5-C ,  6-N ) :   0.8893
B(  5-C , 17-H ) :   0.9331 B(  5-C , 18-H ) :   0.9403 B(  6-N ,  7-C ) :   0.8978
B(  6-N ,  8-C ) :   0.9204 B(  7-C ,  8-C ) :   0.9316 B(  7-C , 19-H ) :   0.9206
B(  7-C , 20-H ) :   0.9126 B(  8-C , 21-H ) :   0.9206

MP2 TOTAL ENERGY:     -403.625958062 Eh
FINAL SINGLE POINT ENERGY      -403.625958061900

DIPOLE MOMENT
-------------
                                X             Y             Z
Electronic contribution:      1.98907      -2.79599      -2.59629
Nuclear contribution   :     -2.34785       3.42513       3.03997
                        -----------------------------------------
Total Dipole Moment    :     -0.35878       0.62914       0.44368
                        -----------------------------------------
Magnitude (a.u.)       :      0.84935
Magnitude (Debye)      :      2.15887

                             ****ORCA TERMINATED NORMALLY****
TOTAL RUN TIME: 0 days 0 hours 20 minutes 47 seconds 207 msec
