                         Program Version 3.0.3 - RELEASE   -
|  1> ! RI-MP2 RIJK def2-TZVP def2-TZVP/C def2-TZVP/JK TIGHTSCF
|  2> % maxcore 2000
|  3> % mp2 density relaxed end
|  4> *xyz 0 1
|  5>  N       -0.0192701453    -1.1767791040    -0.0703834629
|  6>  C       -0.0273219735    -0.0228486328    -0.0041411060
|  7>  C       -0.0095931274     1.4366815455     0.0797150461
|  8>  C        1.4152422568     2.0250009477     0.0090298719
|  9>  C        2.1663167002     1.7027970593    -1.3062176855
| 10>  C        3.1895399464     2.8479084439    -1.4773878900
| 11>  C        2.5435086360     4.0520632829    -0.8035293614
| 12>  C        1.0996048874     4.3422983588    -1.1298452496
| 13>  C        1.4478867760     3.5452886324     0.1074437422
| 14>  H       -0.6206388971     1.8418988447    -0.7352487775
| 15>  H       -0.4963888126     1.7336767523     1.0157426374
| 16>  H        1.9859445838     1.6195705045     0.8539771451
| 17>  H        2.6327910487     0.7156830781    -1.2837252532
| 18>  H        1.4604628438     1.6926599397    -2.1441344489
| 19>  H        4.1236632119     2.6047961267    -0.9574021696
| 20>  H        3.4429018407     3.0220836420    -2.5284790158
| 21>  H        3.1761603833     4.8798485375    -0.5031662954
| 22>  H        0.7508796447     5.3571236071    -0.9739024487
| 23>  H        0.6358265514     3.8486380234    -1.9783787549
| 24>  H        1.2660978948     3.9984713303     1.0763462265
| 25> *
| 26>
| 27>                          ****END OF INPUT****

CARTESIAN COORDINATES (ANGSTROEM)
---------------------------------
  N     -0.019270   -1.176779   -0.070383
  C     -0.027322   -0.022849   -0.004141
  C     -0.009593    1.436682    0.079715
  C      1.415242    2.025001    0.009030
  C      2.166317    1.702797   -1.306218
  C      3.189540    2.847908   -1.477388
  C      2.543509    4.052063   -0.803529
  C      1.099605    4.342298   -1.129845
  C      1.447887    3.545289    0.107444
  H     -0.620639    1.841899   -0.735249
  H     -0.496389    1.733677    1.015743
  H      1.985945    1.619571    0.853977
  H      2.632791    0.715683   -1.283725
  H      1.460463    1.692660   -2.144134
  H      4.123663    2.604796   -0.957402
  H      3.442902    3.022084   -2.528479
  H      3.176160    4.879849   -0.503166
  H      0.750880    5.357124   -0.973902
  H      0.635827    3.848638   -1.978379
  H      1.266098    3.998471    1.076346

 Total Charge           Charge          ....    0
 Multiplicity           Mult            ....    1
 Number of Electrons    NEL             ....   66
 Basis Dimension        Dim             ....  345

ORBITAL ENERGIES
----------------

  NO   OCC          E(Eh)            E(eV)
   0   2.0000     -15.563821      -423.5131
   1   2.0000     -11.277317      -306.8714
   2   2.0000     -11.268803      -306.6397
   3   2.0000     -11.254647      -306.2545
   4   2.0000     -11.240769      -305.8769
   5   2.0000     -11.238739      -305.8216
   6   2.0000     -11.235042      -305.7210
   7   2.0000     -11.232018      -305.6387
   8   2.0000     -11.231338      -305.6202
   9   2.0000      -1.215014       -33.0622
  10   2.0000      -1.188984       -32.3539
  11   2.0000      -1.078165       -29.3384
  12   2.0000      -1.021141       -27.7867
  13   2.0000      -0.937319       -25.5058
  14   2.0000      -0.862975       -23.4827
  15   2.0000      -0.775227       -21.0950
  16   2.0000      -0.762228       -20.7413
  17   2.0000      -0.708739       -19.2858
  18   2.0000      -0.689407       -18.7597
  19   2.0000      -0.640164       -17.4198
  20   2.0000      -0.624220       -16.9859
  21   2.0000      -0.610276       -16.6065
  22   2.0000      -0.564513       -15.3612
  23   2.0000      -0.558494       -15.1974
  24   2.0000      -0.552495       -15.0341
  25   2.0000      -0.517230       -14.0745
  26   2.0000      -0.491791       -13.3823
  27   2.0000      -0.486586       -13.2407
  28   2.0000      -0.481353       -13.0983
  29   2.0000      -0.454741       -12.3741
  30   2.0000      -0.450030       -12.2459
  31   2.0000      -0.418683       -11.3929
  32   2.0000      -0.404133       -10.9970
  33   0.0000       0.124645         3.3918
  34   0.0000       0.138715         3.7746
  35   0.0000       0.146029         3.9737
  36   0.0000       0.164065         4.4644
  37   0.0000       0.177946         4.8422

MULLIKEN ATOMIC CHARGES
-----------------------
   0 N :   -0.059650
   1 C :   -0.173256
   2 C :   -0.157650
   3 C :   -0.082694
   4 C :   -0.289975
   5 C :   -0.205135
   6 C :   -0.087429
   7 C :   -0.308588
   8 C :   -0.102662
   9 H :    0.157389
  10 H :    0.157429
  11 H :    0.112103
  12 H :    0.150570
  13 H :    0.124498
  14 H :    0.116520
  15 H :    0.123005
  16 H :    0.126954
  17 H :    0.135872
  18 H :    0.134593
  19 H :    0.128107
Sum of atomic charges:   -0.0000000

LOEWDIN ATOMIC CHARGES
----------------------
   0 N :    0.052351
   1 C :   -0.192155
   2 C :   -0.222631
   3 C :   -0.213984
   4 C :   -0.220717
   5 C :   -0.230472
   6 C :   -0.197829
   7 C :   -0.205105
   8 C :   -0.182215
   9 H :    0.165883
  10 H :    0.165473
  11 H :    0.162521
  12 H :    0.141816
  13 H :    0.140087
  14 H :    0.141761
  15 H :    0.137358
  16 H :    0.143203
  17 H :    0.136144
  18 H :    0.133834
  19 H :    0.144678

  Mayer bond orders larger than 0.1
B(  0-N ,  1-C ) :   2.8826 B(  1-C ,  2-C ) :   0.9325 B(  2-C ,  3-C ) :   0.9035
B(  2-C ,  9-H ) :   0.9087 B(  2-C , 10-H ) :   0.9090 B(  3-C ,  4-C ) :   0.9338
B(  3-C ,  8-C ) :   0.9244 B(  3-C , 11-H ) :   0.9189 B(  4-C ,  5-C ) :   0.9258
B(  4-C , 12-H ) :   0.9287 B(  4-C , 13-H ) :   0.9330 B(  5-C ,  6-C ) :   0.9392
B(  5-C , 14-H ) :   0.9277 B(  5-C , 15-H ) :   0.9330 B(  6-C ,  7-C ) :   0.8752
B(  6-C ,  8-C ) :   0.8637 B(  6-C , 16-H ) :   0.9323 B(  7-C ,  8-C ) :   0.8839
B(  7-C , 17-H ) :   0.9330 B(  7-C , 18-H ) :   0.9267 B(  8-C , 19-H ) :   0.9246

MP2 TOTAL ENERGY:     -365.375569367 Eh
FINAL SINGLE POINT ENERGY      -365.375569367213

DIPOLE MOMENT
-------------
                                X             Y             Z
Electronic contribution:     -3.28708      -6.07488       2.28928
Nuclear contribution   :      3.56705       7.69137      -2.23885
                        -----------------------------------------
Total Dipole Moment    :      0.27997       1.61649       0.05042
                        -----------------------------------------
Magnitude (a.u.)       :      1.64133
Magnitude (Debye)      :      4.17194

                             ****ORCA TERMINATED NORMALLY****
TOTAL RUN TIME: 0 days 0 hours 17 minutes 0 seconds 59 msec
