                         Program Version 3.0.3 - RELEASE   -
|  1> ! RI-MP2 RIJK def2-TZVP def2-TZVP/C def2-TZVP/JK TIGHTSCF
|  2> % maxcore 2000
|  3> % mp2 density relaxed end
|  4> *xyz 0 1
|  5>  C        0.0063463084     1.4959092367     0.1315255421
|  6>  C       -0.0508707345    -0.0005966193    -0.0361751542
|  7>  C       -1.1880092086    -0.6863907302     0.1146266221
|  8>  C       -1.3355957971    -2.1793519190    -0.0119243487
|  9>  C       -0.1076311153    -2.9591183959     0.5518283915
| 10>  C        0.5128006716    -2.9002664283    -0.8685930633
| 11>  C       -0.9236399076    -2.7081440337    -1.4261440990
| 12>  O        1.3551825680    -1.7933937988    -1.1446360865
| 13>  C        1.3005964893    -0.6382935617    -0.3261630985
| 14>  H        0.7494252777     1.7844462287     0.8871384417
| 15>  H        0.3060746634     1.9901030543    -0.8017784471
| 16>  H       -0.9598955245     1.9029244540     0.4399156786
| 17>  H       -2.0965107174    -0.1284218659     0.3313964164
| 18>  H       -2.3155343220    -2.4939360006     0.3536094788
| 19>  H        0.4425703648    -2.5231110639     1.3878336434
| 20>  H       -0.3700238719    -3.9903597830     0.8031657782
| 21>  H        1.0682387804    -3.7784150256    -1.2094618283
| 22>  H       -1.3982892943    -3.6659383620    -1.6606249216
| 23>  H       -1.0248478660    -2.0233446923    -2.2698309616
| 24>  H        1.9243176852     0.0907144559    -0.8555037549
| 25>  H        1.8086953704    -0.8249843095     0.6362135408
| 26> *
| 27>
| 28>                          ****END OF INPUT****

CARTESIAN COORDINATES (ANGSTROEM)
---------------------------------
  C      0.006346    1.495909    0.131526
  C     -0.050871   -0.000597   -0.036175
  C     -1.188009   -0.686391    0.114627
  C     -1.335596   -2.179352   -0.011924
  C     -0.107631   -2.959118    0.551828
  C      0.512801   -2.900266   -0.868593
  C     -0.923640   -2.708144   -1.426144
  O      1.355183   -1.793394   -1.144636
  C      1.300596   -0.638294   -0.326163
  H      0.749425    1.784446    0.887138
  H      0.306075    1.990103   -0.801778
  H     -0.959896    1.902924    0.439916
  H     -2.096511   -0.128422    0.331396
  H     -2.315534   -2.493936    0.353609
  H      0.442570   -2.523111    1.387834
  H     -0.370024   -3.990360    0.803166
  H      1.068239   -3.778415   -1.209462
  H     -1.398289   -3.665938   -1.660625
  H     -1.024848   -2.023345   -2.269831
  H      1.924318    0.090714   -0.855504
  H      1.808695   -0.824984    0.636214

 Total Charge           Charge          ....    0
 Multiplicity           Mult            ....    1
 Number of Electrons    NEL             ....   68
 Basis Dimension        Dim             ....  351

ORBITAL ENERGIES
----------------

  NO   OCC          E(Eh)            E(eV)
   0   2.0000     -20.547573      -559.1279
   1   2.0000     -11.276657      -306.8534
   2   2.0000     -11.276115      -306.8387
   3   2.0000     -11.231768      -305.6319
   4   2.0000     -11.231551      -305.6260
   5   2.0000     -11.222623      -305.3831
   6   2.0000     -11.221908      -305.3636
   7   2.0000     -11.218239      -305.2638
   8   2.0000     -11.215612      -305.1923
   9   2.0000      -1.367661       -37.2159
  10   2.0000      -1.131942       -30.8017
  11   2.0000      -1.084302       -29.5054
  12   2.0000      -0.954455       -25.9720
  13   2.0000      -0.928040       -25.2533
  14   2.0000      -0.899224       -24.4691
  15   2.0000      -0.863321       -23.4922
  16   2.0000      -0.743846       -20.2411
  17   2.0000      -0.708847       -19.2887
  18   2.0000      -0.679578       -18.4923
  19   2.0000      -0.661796       -18.0084
  20   2.0000      -0.632126       -17.2010
  21   2.0000      -0.592457       -16.1216
  22   2.0000      -0.584017       -15.8919
  23   2.0000      -0.569183       -15.4883
  24   2.0000      -0.556627       -15.1466
  25   2.0000      -0.542196       -14.7539
  26   2.0000      -0.539020       -14.6675
  27   2.0000      -0.504025       -13.7152
  28   2.0000      -0.492774       -13.4091
  29   2.0000      -0.467017       -12.7082
  30   2.0000      -0.447295       -12.1715
  31   2.0000      -0.426811       -11.6141
  32   2.0000      -0.395188       -10.7536
  33   2.0000      -0.333193        -9.0667
  34   0.0000       0.134963         3.6725
  35   0.0000       0.143612         3.9079
  36   0.0000       0.151518         4.1230
  37   0.0000       0.171223         4.6592
  38   0.0000       0.182662         4.9705

MULLIKEN ATOMIC CHARGES
-----------------------
   0 C :   -0.427631
   1 C :    0.101182
   2 C :   -0.365530
   3 C :    0.105337
   4 C :   -0.311006
   5 C :    0.097491
   6 C :   -0.257386
   7 O :   -0.315977
   8 C :   -0.093117
   9 H :    0.135566
  10 H :    0.141548
  11 H :    0.132810
  12 H :    0.109978
  13 H :    0.111507
  14 H :    0.127830
  15 H :    0.125914
  16 H :    0.106578
  17 H :    0.112672
  18 H :    0.114740
  19 H :    0.134134
  20 H :    0.113359
Sum of atomic charges:   -0.0000000

LOEWDIN ATOMIC CHARGES
----------------------
   0 C :   -0.274365
   1 C :   -0.196921
   2 C :   -0.138038
   3 C :   -0.215270
   4 C :   -0.198374
   5 C :   -0.290844
   6 C :   -0.195030
   7 O :    0.178718
   8 C :   -0.282369
   9 H :    0.129778
  10 H :    0.129724
  11 H :    0.128451
  12 H :    0.145816
  13 H :    0.140275
  14 H :    0.131495
  15 H :    0.141263
  16 H :    0.129443
  17 H :    0.134865
  18 H :    0.130619
  19 H :    0.140535
  20 H :    0.130228

  Mayer bond orders larger than 0.1
B(  0-C ,  1-C ) :   0.8849 B(  0-C ,  9-H ) :   0.9280 B(  0-C , 10-H ) :   0.9324
B(  0-C , 11-H ) :   0.9425 B(  1-C ,  2-C ) :   1.7800 B(  1-C ,  8-C ) :   0.8897
B(  2-C ,  3-C ) :   0.9024 B(  2-C , 12-H ) :   0.9329 B(  3-C ,  4-C ) :   0.8738
B(  3-C ,  6-C ) :   0.8885 B(  3-C , 13-H ) :   0.9247 B(  4-C ,  5-C ) :   0.9099
B(  4-C , 14-H ) :   0.9236 B(  4-C , 15-H ) :   0.9148 B(  5-C ,  6-C ) :   0.8999
B(  5-C ,  7-O ) :   0.9254 B(  5-C , 16-H ) :   0.9455 B(  6-C , 17-H ) :   0.9137
B(  6-C , 18-H ) :   0.9192 B(  7-O ,  8-C ) :   0.9589 B(  8-C , 19-H ) :   0.9277
B(  8-C , 20-H ) :   0.9356

MP2 TOTAL ENERGY:     -386.393276781 Eh
FINAL SINGLE POINT ENERGY      -386.393276781055

DIPOLE MOMENT
-------------
                                X             Y             Z
Electronic contribution:      1.28350      -2.50651      -1.63817
Nuclear contribution   :     -1.58053       2.54372       2.02775
                        -----------------------------------------
Total Dipole Moment    :     -0.29703       0.03721       0.38958
                        -----------------------------------------
Magnitude (a.u.)       :      0.49130
Magnitude (Debye)      :      1.24880

                             ****ORCA TERMINATED NORMALLY****
TOTAL RUN TIME: 0 days 0 hours 21 minutes 36 seconds 940 msec
