                         Program Version 3.0.3 - RELEASE   -
|  1> ! RI-MP2 RIJK def2-TZVP def2-TZVP/C def2-TZVP/JK TIGHTSCF
|  2> % maxcore 2000
|  3> % mp2 density relaxed end
|  4> *xyz 0 1
|  5>  C       -0.0983368694     1.5614774097     0.0122857216
|  6>  C        0.0207514815     0.0548502093     0.0649983264
|  7>  C        1.3340741302    -0.6679577637    -0.2367108178
|  8>  C        2.5345118985     0.0860219648    -0.4138428576
|  9>  N        3.5040591822     0.7136742896    -0.5051674808
| 10>  C        0.6998909726    -0.6593567764     1.2045684299
| 11>  N        1.2710394489     0.1024410065     2.2800997889
| 12>  C        0.1565549166    -1.9254097275     1.6235870572
| 13>  C       -0.2791260655    -2.9921131618     1.9657609624
| 14>  H        0.8395937906     2.0674799497     0.2528805076
| 15>  H       -0.3846250013     1.8784842516    -0.9950933084
| 16>  H       -0.8649804240     1.9090970694     0.7108871078
| 17>  H       -0.8434296968    -0.4716344086    -0.3274792907
| 18>  H        1.2819852160    -1.5947066918    -0.7958823453
| 19>  H        1.9732771260    -0.4513895410     2.7611193665
| 20>  H        1.7333555621     0.9382220768     1.9388926710
| 21>  H       -0.6737420085    -3.9286307867     2.2746342712
| 22> *
| 23>
| 24>                          ****END OF INPUT****

CARTESIAN COORDINATES (ANGSTROEM)
---------------------------------
  C     -0.098337    1.561477    0.012286
  C      0.020751    0.054850    0.064998
  C      1.334074   -0.667958   -0.236711
  C      2.534512    0.086022   -0.413843
  N      3.504059    0.713674   -0.505167
  C      0.699891   -0.659357    1.204568
  N      1.271039    0.102441    2.280100
  C      0.156555   -1.925410    1.623587
  C     -0.279126   -2.992113    1.965761
  H      0.839594    2.067480    0.252881
  H     -0.384625    1.878484   -0.995093
  H     -0.864980    1.909097    0.710887
  H     -0.843430   -0.471634   -0.327479
  H      1.281985   -1.594707   -0.795882
  H      1.973277   -0.451390    2.761119
  H      1.733356    0.938222    1.938893
  H     -0.673742   -3.928631    2.274634

 Total Charge           Charge          ....    0
 Multiplicity           Mult            ....    1
 Number of Electrons    NEL             ....   64
 Basis Dimension        Dim             ....  327

ORBITAL ENERGIES
----------------

  NO   OCC          E(Eh)            E(eV)
   0   2.0000     -15.573777      -423.7840
   1   2.0000     -15.571338      -423.7177
   2   2.0000     -11.326491      -308.2095
   3   2.0000     -11.287475      -307.1478
   4   2.0000     -11.280154      -306.9486
   5   2.0000     -11.277247      -306.8695
   6   2.0000     -11.251668      -306.1735
   7   2.0000     -11.243041      -305.9387
   8   2.0000     -11.242023      -305.9110
   9   2.0000      -1.258095       -34.2345
  10   2.0000      -1.217402       -33.1272
  11   2.0000      -1.138980       -30.9932
  12   2.0000      -1.048942       -28.5432
  13   2.0000      -0.997316       -27.1384
  14   2.0000      -0.922205       -25.0945
  15   2.0000      -0.835178       -22.7263
  16   2.0000      -0.754507       -20.5312
  17   2.0000      -0.717233       -19.5169
  18   2.0000      -0.703971       -19.1560
  19   2.0000      -0.656745       -17.8709
  20   2.0000      -0.633538       -17.2394
  21   2.0000      -0.599337       -16.3088
  22   2.0000      -0.589165       -16.0320
  23   2.0000      -0.564808       -15.3692
  24   2.0000      -0.549153       -14.9432
  25   2.0000      -0.531400       -14.4601
  26   2.0000      -0.506692       -13.7878
  27   2.0000      -0.470446       -12.8015
  28   2.0000      -0.446982       -12.1630
  29   2.0000      -0.425198       -11.5702
  30   2.0000      -0.404939       -11.0190
  31   2.0000      -0.364444        -9.9170
  32   0.0000       0.121595         3.3088
  33   0.0000       0.137794         3.7496
  34   0.0000       0.142576         3.8797
  35   0.0000       0.155213         4.2236
  36   0.0000       0.164087         4.4650

MULLIKEN ATOMIC CHARGES
-----------------------
   0 C :   -0.402887
   1 C :   -0.068728
   2 C :   -0.047545
   3 C :   -0.229076
   4 N :   -0.050167
   5 C :   -0.033146
   6 N :   -0.498507
   7 C :   -0.037061
   8 C :   -0.083871
   9 H :    0.136223
  10 H :    0.148710
  11 H :    0.155655
  12 H :    0.150986
  13 H :    0.172242
  14 H :    0.247769
  15 H :    0.240108
  16 H :    0.199294
Sum of atomic charges:    0.0000000

LOEWDIN ATOMIC CHARGES
----------------------
   0 C :   -0.275357
   1 C :   -0.161449
   2 C :   -0.153467
   3 C :   -0.192549
   4 N :    0.059014
   5 C :   -0.268972
   6 N :   -0.073459
   7 C :   -0.065020
   8 C :   -0.073553
   9 H :    0.130300
  10 H :    0.134852
  11 H :    0.135854
  12 H :    0.163873
  13 H :    0.172390
  14 H :    0.172348
  15 H :    0.165078
  16 H :    0.130115

  Mayer bond orders larger than 0.1
B(  0-C ,  1-C ) :   0.9010 B(  0-C ,  9-H ) :   0.9276 B(  0-C , 10-H ) :   0.9331
B(  0-C , 11-H ) :   0.9350 B(  1-C ,  2-C ) :   0.8353 B(  1-C ,  5-C ) :   0.8453
B(  1-C , 12-H ) :   0.9286 B(  2-C ,  3-C ) :   0.9676 B(  2-C ,  5-C ) :   0.7544
B(  2-C , 13-H ) :   0.9006 B(  3-C ,  4-N ) :   2.8217 B(  5-C ,  6-N ) :   1.0606
B(  5-C ,  7-C ) :   1.2544 B(  5-C ,  8-C ) :  -0.1668 B(  6-N , 14-H ) :   0.8792
B(  6-N , 15-H ) :   0.8761 B(  7-C ,  8-C ) :   2.5391 B(  8-C , 16-H ) :   0.8851

MP2 TOTAL ENERGY:     -380.150876154 Eh
FINAL SINGLE POINT ENERGY      -380.150876154148

DIPOLE MOMENT
-------------
                                X             Y             Z
Electronic contribution:      3.71879      -3.58027      -0.34217
Nuclear contribution   :     -4.76082       3.00604       0.37647
                        -----------------------------------------
Total Dipole Moment    :     -1.04203      -0.57423       0.03430
                        -----------------------------------------
Magnitude (a.u.)       :      1.19027
Magnitude (Debye)      :      3.02542

                             ****ORCA TERMINATED NORMALLY****
TOTAL RUN TIME: 0 days 0 hours 17 minutes 10 seconds 525 msec
