                         Program Version 3.0.3 - RELEASE   -
|  1> ! RI-MP2 RIJK def2-TZVP def2-TZVP/C def2-TZVP/JK TIGHTSCF
|  2> % maxcore 2000
|  3> % mp2 density relaxed end
|  4> *xyz 0 1
|  5>  C        0.0780859850    -1.1434309762     0.0278840216
|  6>  C       -0.0059964610     0.0558094258     0.0187536513
|  7>  C       -0.0665370869     1.4784438642     0.0133205622
|  8>  N       -1.1531865236     2.1487324504     0.0965139799
|  9>  C       -0.7925041001     3.5738362811     0.0548951703
| 10>  C        0.7347643851     3.6022709083     0.0331068227
| 11>  C        1.4627651184     2.9421016993     1.1415860362
| 12>  N        1.1773513261     2.1935937202    -0.1131455230
| 13>  H        0.1399547790    -2.2039580429     0.0335258843
| 14>  H       -1.2134154435     4.0269555142    -0.8507768805
| 15>  H       -1.2394095296     4.0938502311     0.9098406650
| 16>  H        1.2487220053     4.3265230291    -0.5897532265
| 17>  H        2.5137515643     3.1566683894     1.3056183497
| 18>  H        0.9033699616     2.6534023261     2.0278608168
| 19> *
| 20>
| 21>                          ****END OF INPUT****

CARTESIAN COORDINATES (ANGSTROEM)
---------------------------------
  C      0.078086   -1.143431    0.027884
  C     -0.005996    0.055809    0.018754
  C     -0.066537    1.478444    0.013321
  N     -1.153187    2.148732    0.096514
  C     -0.792504    3.573836    0.054895
  C      0.734764    3.602271    0.033107
  C      1.462765    2.942102    1.141586
  N      1.177351    2.193594   -0.113146
  H      0.139955   -2.203958    0.033526
  H     -1.213415    4.026956   -0.850777
  H     -1.239410    4.093850    0.909841
  H      1.248722    4.326523   -0.589753
  H      2.513752    3.156668    1.305618
  H      0.903370    2.653402    2.027861

 Total Charge           Charge          ....    0
 Multiplicity           Mult            ....    1
 Number of Electrons    NEL             ....   56
 Basis Dimension        Dim             ....  284

ORBITAL ENERGIES
----------------

  NO   OCC          E(Eh)            E(eV)
   0   2.0000     -15.586161      -424.1210
   1   2.0000     -15.565974      -423.5717
   2   2.0000     -11.331987      -308.3590
   3   2.0000     -11.278917      -306.9149
   4   2.0000     -11.277553      -306.8778
   5   2.0000     -11.268694      -306.6367
   6   2.0000     -11.249300      -306.1090
   7   2.0000     -11.245401      -306.0029
   8   2.0000      -1.340445       -36.4754
   9   2.0000      -1.202335       -32.7172
  10   2.0000      -1.068310       -29.0702
  11   2.0000      -1.002195       -27.2711
  12   2.0000      -0.910919       -24.7874
  13   2.0000      -0.838375       -22.8133
  14   2.0000      -0.823316       -22.4036
  15   2.0000      -0.729486       -19.8503
  16   2.0000      -0.710156       -19.3243
  17   2.0000      -0.667016       -18.1504
  18   2.0000      -0.605272       -16.4703
  19   2.0000      -0.593460       -16.1489
  20   2.0000      -0.570055       -15.5120
  21   2.0000      -0.528465       -14.3803
  22   2.0000      -0.511289       -13.9129
  23   2.0000      -0.465998       -12.6805
  24   2.0000      -0.439152       -11.9499
  25   2.0000      -0.413747       -11.2586
  26   2.0000      -0.401186       -10.9168
  27   2.0000      -0.365462        -9.9447
  28   0.0000       0.097242         2.6461
  29   0.0000       0.148913         4.0521
  30   0.0000       0.158543         4.3142
  31   0.0000       0.167698         4.5633
  32   0.0000       0.176445         4.8013

MULLIKEN ATOMIC CHARGES
-----------------------
   0 C :   -0.076641
   1 C :    0.087998
   2 C :   -0.091295
   3 N :   -0.208256
   4 C :   -0.118930
   5 C :   -0.088364
   6 C :   -0.169100
   7 N :   -0.223917
   8 H :    0.201661
   9 H :    0.129625
  10 H :    0.133736
  11 H :    0.142324
  12 H :    0.140395
  13 H :    0.140764
Sum of atomic charges:    0.0000000

LOEWDIN ATOMIC CHARGES
----------------------
   0 C :   -0.044188
   1 C :   -0.051936
   2 C :   -0.305861
   3 N :    0.139885
   4 C :   -0.260110
   5 C :   -0.234404
   6 C :   -0.215621
   7 N :    0.155903
   8 H :    0.131186
   9 H :    0.139345
  10 H :    0.138633
  11 H :    0.142607
  12 H :    0.130278
  13 H :    0.134284

  Mayer bond orders larger than 0.1
B(  0-C ,  1-C ) :   2.6121 B(  0-C ,  2-C ) :  -0.1612 B(  0-C ,  8-H ) :   0.8717
B(  1-C ,  2-C ) :   1.2039 B(  2-C ,  3-N ) :   1.8733 B(  2-C ,  7-N ) :   0.9650
B(  3-N ,  4-C ) :   0.9399 B(  4-C ,  5-C ) :   0.9569 B(  4-C ,  9-H ) :   0.9200
B(  4-C , 10-H ) :   0.9148 B(  5-C ,  6-C ) :   0.9434 B(  5-C ,  7-N ) :   0.8786
B(  5-C , 11-H ) :   0.9074 B(  6-C ,  7-N ) :   0.8473 B(  6-C , 12-H ) :   0.9270
B(  6-C , 13-H ) :   0.9095

MP2 TOTAL ENERGY:     -340.911976729 Eh
FINAL SINGLE POINT ENERGY      -340.911976729438

DIPOLE MOMENT
-------------
                                X             Y             Z
Electronic contribution:     -0.73856      -3.78230      -1.34904
Nuclear contribution   :      1.16321       4.28447       1.69818
                        -----------------------------------------
Total Dipole Moment    :      0.42466       0.50217       0.34914
                        -----------------------------------------
Magnitude (a.u.)       :      0.74459
Magnitude (Debye)      :      1.89259

                             ****ORCA TERMINATED NORMALLY****
TOTAL RUN TIME: 0 days 0 hours 17 minutes 11 seconds 443 msec
