                         Program Version 3.0.3 - RELEASE   -
|  1> ! RI-MP2 RIJK def2-TZVP def2-TZVP/C def2-TZVP/JK TIGHTSCF
|  2> % maxcore 2000
|  3> % mp2 density relaxed end
|  4> *xyz 0 1
|  5>  C       -0.3522531338     1.3515295295     0.4001930657
|  6>  O       -0.3670562864    -0.0435870434     0.5645347096
|  7>  C        0.9288303130    -0.6059649479     0.5824148041
|  8>  C        0.8254978181    -2.0859402324     0.7769463682
|  9>  C       -0.3326550506    -2.7945471112     1.0006896167
| 10>  N       -0.0093140261    -4.1215013832     1.1537570534
| 11>  C       -0.9600949205    -5.2014482580     1.3032694650
| 12>  C        1.3483965341    -4.2667445306     1.0200549107
| 13>  C        1.8958936506    -3.0262909907     0.7883329451
| 14>  H        0.1177657765     1.6477406206    -0.5517689813
| 15>  H       -1.3901465418     1.6940171740     0.4015887362
| 16>  H        0.1891573777     1.8555036862     1.2173883631
| 17>  H        1.4561543056    -0.3731739115    -0.3608002994
| 18>  H        1.5273562666    -0.1445362270     1.3895048676
| 19>  H       -1.3534576935    -2.4563577422     1.0606034724
| 20>  H       -1.3276622632    -5.5617289168     0.3348231488
| 21>  H       -0.4882540797    -6.0353919026     1.8284700297
| 22>  H       -1.8143575147    -4.8626644471     1.8948799046
| 23>  H        1.8069227858    -5.2399399460     1.1007574979
| 24>  H        2.9467364023    -2.8130078399     0.6597056519
| 25> *
| 26>
| 27>                          ****END OF INPUT****

CARTESIAN COORDINATES (ANGSTROEM)
---------------------------------
  C     -0.352253    1.351530    0.400193
  O     -0.367056   -0.043587    0.564535
  C      0.928830   -0.605965    0.582415
  C      0.825498   -2.085940    0.776946
  C     -0.332655   -2.794547    1.000690
  N     -0.009314   -4.121501    1.153757
  C     -0.960095   -5.201448    1.303269
  C      1.348397   -4.266745    1.020055
  C      1.895894   -3.026291    0.788333
  H      0.117766    1.647741   -0.551769
  H     -1.390147    1.694017    0.401589
  H      0.189157    1.855504    1.217388
  H      1.456154   -0.373174   -0.360800
  H      1.527356   -0.144536    1.389505
  H     -1.353458   -2.456358    1.060603
  H     -1.327662   -5.561729    0.334823
  H     -0.488254   -6.035392    1.828470
  H     -1.814358   -4.862664    1.894880
  H      1.806923   -5.239940    1.100757
  H      2.946736   -2.813008    0.659706

 Total Charge           Charge          ....    0
 Multiplicity           Mult            ....    1
 Number of Electrons    NEL             ....   68
 Basis Dimension        Dim             ....  345

ORBITAL ENERGIES
----------------

  NO   OCC          E(Eh)            E(eV)
   0   2.0000     -20.550259      -559.2010
   1   2.0000     -15.596887      -424.4129
   2   2.0000     -11.272748      -306.7471
   3   2.0000     -11.268168      -306.6224
   4   2.0000     -11.266755      -306.5840
   5   2.0000     -11.243409      -305.9487
   6   2.0000     -11.235292      -305.7278
   7   2.0000     -11.206219      -304.9367
   8   2.0000     -11.201437      -304.8066
   9   2.0000      -1.372008       -37.3342
  10   2.0000      -1.292657       -35.1750
  11   2.0000      -1.079010       -29.3613
  12   2.0000      -0.995741       -27.0955
  13   2.0000      -0.955210       -25.9926
  14   2.0000      -0.919172       -25.0119
  15   2.0000      -0.865887       -23.5620
  16   2.0000      -0.762280       -20.7427
  17   2.0000      -0.739534       -20.1237
  18   2.0000      -0.698839       -19.0164
  19   2.0000      -0.659283       -17.9400
  20   2.0000      -0.641048       -17.4438
  21   2.0000      -0.627813       -17.0837
  22   2.0000      -0.617065       -16.7912
  23   2.0000      -0.593018       -16.1369
  24   2.0000      -0.561521       -15.2798
  25   2.0000      -0.555033       -15.1032
  26   2.0000      -0.547833       -14.9073
  27   2.0000      -0.520519       -14.1641
  28   2.0000      -0.509931       -13.8759
  29   2.0000      -0.503440       -13.6993
  30   2.0000      -0.476853       -12.9758
  31   2.0000      -0.422016       -11.4837
  32   2.0000      -0.323241        -8.7958
  33   2.0000      -0.288312        -7.8454
  34   0.0000       0.141938         3.8623
  35   0.0000       0.150257         4.0887
  36   0.0000       0.162914         4.4331
  37   0.0000       0.177827         4.8389
  38   0.0000       0.185112         5.0372

MULLIKEN ATOMIC CHARGES
-----------------------
   0 C :   -0.219047
   1 O :   -0.298274
   2 C :   -0.082480
   3 C :    0.074165
   4 C :   -0.174541
   5 N :   -0.004787
   6 C :   -0.323071
   7 C :   -0.112519
   8 C :   -0.273640
   9 H :    0.109545
  10 H :    0.136330
  11 H :    0.109655
  12 H :    0.100287
  13 H :    0.099348
  14 H :    0.151810
  15 H :    0.148432
  16 H :    0.146560
  17 H :    0.149732
  18 H :    0.140582
  19 H :    0.121913
Sum of atomic charges:   -0.0000000

LOEWDIN ATOMIC CHARGES
----------------------
   0 C :   -0.363937
   1 O :    0.141306
   2 C :   -0.285605
   3 C :   -0.193508
   4 C :   -0.192227
   5 N :    0.225879
   6 C :   -0.274422
   7 C :   -0.226963
   8 C :   -0.178175
   9 H :    0.100904
  10 H :    0.112559
  11 H :    0.100782
  12 H :    0.125465
  13 H :    0.125033
  14 H :    0.139258
  15 H :    0.120690
  16 H :    0.125621
  17 H :    0.126097
  18 H :    0.132643
  19 H :    0.138601

  Mayer bond orders larger than 0.1
B(  0-C ,  1-O ) :   0.9225 B(  0-C ,  9-H ) :   0.9361 B(  0-C , 10-H ) :   0.9405
B(  0-C , 11-H ) :   0.9366 B(  1-O ,  2-C ) :   0.9821 B(  2-C ,  3-C ) :   0.9342
B(  2-C , 12-H ) :   0.9248 B(  2-C , 13-H ) :   0.9218 B(  3-C ,  4-C ) :   1.4691
B(  3-C ,  8-C ) :   1.2399 B(  4-C ,  5-N ) :   1.1423 B(  4-C , 14-H ) :   0.8922
B(  5-N ,  6-C ) :   0.8714 B(  5-N ,  7-C ) :   1.1388 B(  6-C , 15-H ) :   0.9260
B(  6-C , 16-H ) :   0.9346 B(  6-C , 17-H ) :   0.9341 B(  7-C ,  8-C ) :   1.4653
B(  7-C , 18-H ) :   0.9154 B(  8-C , 19-H ) :   0.9337

MP2 TOTAL ENERGY:     -402.468170555 Eh
FINAL SINGLE POINT ENERGY      -402.468170555395

DIPOLE MOMENT
-------------
                                X             Y             Z
Electronic contribution:      1.19395      -2.57492       0.29811
Nuclear contribution   :     -1.40921       2.24774      -0.21971
                        -----------------------------------------
Total Dipole Moment    :     -0.21526      -0.32717       0.07840
                        -----------------------------------------
Magnitude (a.u.)       :      0.39941
Magnitude (Debye)      :      1.01522

                             ****ORCA TERMINATED NORMALLY****
TOTAL RUN TIME: 0 days 0 hours 15 minutes 55 seconds 849 msec
