                         Program Version 3.0.3 - RELEASE   -
|  1> ! RI-MP2 RIJK def2-TZVP def2-TZVP/C def2-TZVP/JK TIGHTSCF
|  2> % maxcore 2000
|  3> % mp2 density relaxed end
|  4> *xyz 0 1
|  5>  C        0.0444402031     1.4890928848     0.0095791806
|  6>  O        1.2250141550     0.6838676409    -0.0060256845
|  7>  C       -0.0473704619     0.0273571115     0.0026190811
|  8>  C       -0.3905435782    -0.7466426897     1.2602628112
|  9>  O        0.0571919451    -2.0916122725     1.1583494133
| 10>  C       -0.4267077413    -2.7020220454    -0.0083702679
| 11>  O        0.0348633213    -2.0791006584    -1.1775213678
| 12>  C       -0.4146069861    -0.7331637799    -1.2564480845
| 13>  H       -0.1396739975     2.0379594103     0.9330241750
| 14>  H       -0.1572383882     2.0478167720    -0.9042346847
| 15>  H        0.1056612616    -0.3054926292     2.1273141822
| 16>  H       -1.4825462254    -0.7231318961     1.4209184150
| 17>  H       -0.0430021116    -3.7234435505    -0.0175091174
| 18>  H       -1.5352421237    -2.7069524412     0.0021997535
| 19>  H       -1.5094797499    -0.7080507178    -1.3959299861
| 20>  H        0.0649688476    -0.2827040487    -2.1280579392
| 21> *
| 22>
| 23>                          ****END OF INPUT****

CARTESIAN COORDINATES (ANGSTROEM)
---------------------------------
  C      0.044440    1.489093    0.009579
  O      1.225014    0.683868   -0.006026
  C     -0.047370    0.027357    0.002619
  C     -0.390544   -0.746643    1.260263
  O      0.057192   -2.091612    1.158349
  C     -0.426708   -2.702022   -0.008370
  O      0.034863   -2.079101   -1.177521
  C     -0.414607   -0.733164   -1.256448
  H     -0.139674    2.037959    0.933024
  H     -0.157238    2.047817   -0.904235
  H      0.105661   -0.305493    2.127314
  H     -1.482546   -0.723132    1.420918
  H     -0.043002   -3.723444   -0.017509
  H     -1.535242   -2.706952    0.002200
  H     -1.509480   -0.708051   -1.395930
  H      0.064969   -0.282704   -2.128058

 Total Charge           Charge          ....    0
 Multiplicity           Mult            ....    1
 Number of Electrons    NEL             ....   62
 Basis Dimension        Dim             ....  296

ORBITAL ENERGIES
----------------

  NO   OCC          E(Eh)            E(eV)
   0   2.0000     -20.574913      -559.8718
   1   2.0000     -20.569767      -559.7318
   2   2.0000     -20.569749      -559.7313
   3   2.0000     -11.333569      -308.4021
   4   2.0000     -11.300355      -307.4983
   5   2.0000     -11.295068      -307.3544
   6   2.0000     -11.292916      -307.2959
   7   2.0000     -11.292874      -307.2947
   8   2.0000      -1.437416       -39.1141
   9   2.0000      -1.414773       -38.4979
  10   2.0000      -1.354649       -36.8619
  11   2.0000      -1.051804       -28.6210
  12   2.0000      -0.940799       -25.6005
  13   2.0000      -0.933304       -25.3965
  14   2.0000      -0.888275       -24.1712
  15   2.0000      -0.786401       -21.3991
  16   2.0000      -0.716579       -19.4991
  17   2.0000      -0.704732       -19.1767
  18   2.0000      -0.685161       -18.6442
  19   2.0000      -0.674457       -18.3529
  20   2.0000      -0.631480       -17.1835
  21   2.0000      -0.601145       -16.3580
  22   2.0000      -0.598272       -16.2798
  23   2.0000      -0.574121       -15.6226
  24   2.0000      -0.559098       -15.2138
  25   2.0000      -0.510480       -13.8909
  26   2.0000      -0.496199       -13.5022
  27   2.0000      -0.478561       -13.0223
  28   2.0000      -0.450332       -12.2542
  29   2.0000      -0.442073       -12.0294
  30   2.0000      -0.423196       -11.5158
  31   0.0000       0.134938         3.6719
  32   0.0000       0.161417         4.3924
  33   0.0000       0.174329         4.7437
  34   0.0000       0.182658         4.9704
  35   0.0000       0.199535         5.4296

MULLIKEN ATOMIC CHARGES
-----------------------
   0 C :   -0.084157
   1 O :   -0.322605
   2 C :    0.080903
   3 C :   -0.025904
   4 O :   -0.297896
   5 C :    0.041198
   6 O :   -0.297895
   7 C :   -0.025902
   8 H :    0.120016
   9 H :    0.120016
  10 H :    0.134627
  11 H :    0.100615
  12 H :    0.136698
  13 H :    0.085042
  14 H :    0.100616
  15 H :    0.134627
Sum of atomic charges:    0.0000000

LOEWDIN ATOMIC CHARGES
----------------------
   0 C :   -0.242367
   1 O :    0.173011
   2 C :   -0.341235
   3 C :   -0.271156
   4 O :    0.163850
   5 C :   -0.397072
   6 O :    0.163850
   7 C :   -0.271156
   8 H :    0.123760
   9 H :    0.123760
  10 H :    0.142537
  11 H :    0.129111
  12 H :    0.126074
  13 H :    0.105386
  14 H :    0.129111
  15 H :    0.142536

  Mayer bond orders larger than 0.1
B(  0-C ,  1-O ) :   0.9034 B(  0-C ,  2-C ) :   0.9638 B(  0-C ,  8-H ) :   0.9065
B(  0-C ,  9-H ) :   0.9065 B(  1-O ,  2-C ) :   0.8594 B(  2-C ,  3-C ) :   0.9239
B(  2-C ,  7-C ) :   0.9239 B(  3-C ,  4-O ) :   0.9256 B(  3-C , 10-H ) :   0.9173
B(  3-C , 11-H ) :   0.9383 B(  4-O ,  5-C ) :   0.9825 B(  5-C ,  6-O ) :   0.9825
B(  5-C , 12-H ) :   0.9283 B(  5-C , 13-H ) :   0.9377 B(  6-O ,  7-C ) :   0.9256
B(  7-C , 14-H ) :   0.9383 B(  7-C , 15-H ) :   0.9173

MP2 TOTAL ENERGY:     -420.185090065 Eh
FINAL SINGLE POINT ENERGY      -420.185090065026

DIPOLE MOMENT
-------------
                                X             Y             Z
Electronic contribution:      3.22755      -1.27378      -0.03769
Nuclear contribution   :     -4.48468       1.84893       0.05279
                        -----------------------------------------
Total Dipole Moment    :     -1.25712       0.57515       0.01510
                        -----------------------------------------
Magnitude (a.u.)       :      1.38253
Magnitude (Debye)      :      3.51410

                             ****ORCA TERMINATED NORMALLY****
TOTAL RUN TIME: 0 days 0 hours 10 minutes 35 seconds 634 msec
