                         Program Version 3.0.3 - RELEASE   -
|  1> ! RI-MP2 RIJK def2-TZVP def2-TZVP/C def2-TZVP/JK TIGHTSCF
|  2> % maxcore 2000
|  3> % mp2 density relaxed end
|  4> *xyz 0 1
|  5>  C        0.0578319570     1.5184806545     0.0453380521
|  6>  C        0.0491086708     0.0138795022     0.0766352886
|  7>  C        0.2633133736    -0.7899635883    -1.2787593881
|  8>  C        0.6184670134    -2.1925330116    -0.7548044550
|  9>  C       -0.2051097112    -2.0143460241     0.5341314600
| 10>  C        0.5582532486    -0.8483674057     1.2310656765
| 11>  O        1.9550661439    -0.9033859742     1.4051082236
| 12>  C       -1.2089504231    -0.8923192089    -0.0191517157
| 13>  O       -1.1842248487    -0.9076315189    -1.4486112919
| 14>  H        1.0778448156     1.9017093961    -0.0683685394
| 15>  H       -0.5399539978     1.8895546031    -0.7935115615
| 16>  H       -0.3543203455     1.9387021293     0.9691795257
| 17>  H        0.7744817213    -0.3694323134    -2.1437811400
| 18>  H        0.2414818848    -2.9636331044    -1.4288983777
| 19>  H        1.6793692352    -2.3412524428    -0.5503708529
| 20>  H       -0.5443952022    -2.8922135492     1.0812011071
| 21>  H        0.0525622995    -0.5442034973     2.1599298790
| 22>  H        2.1490924179    -1.4818476331     2.1495469358
| 23>  H       -2.1823394030    -0.7268632732     0.4396471739
| 24> *
| 25>
| 26>                          ****END OF INPUT****

CARTESIAN COORDINATES (ANGSTROEM)
---------------------------------
  C      0.057832    1.518481    0.045338
  C      0.049109    0.013880    0.076635
  C      0.263313   -0.789964   -1.278759
  C      0.618467   -2.192533   -0.754804
  C     -0.205110   -2.014346    0.534131
  C      0.558253   -0.848367    1.231066
  O      1.955066   -0.903386    1.405108
  C     -1.208950   -0.892319   -0.019152
  O     -1.184225   -0.907632   -1.448611
  H      1.077845    1.901709   -0.068369
  H     -0.539954    1.889555   -0.793512
  H     -0.354320    1.938702    0.969180
  H      0.774482   -0.369432   -2.143781
  H      0.241482   -2.963633   -1.428898
  H      1.679369   -2.341252   -0.550371
  H     -0.544395   -2.892214    1.081201
  H      0.052562   -0.544203    2.159930
  H      2.149092   -1.481848    2.149547
  H     -2.182339   -0.726863    0.439647

 Total Charge           Charge          ....    0
 Multiplicity           Mult            ....    1
 Number of Electrons    NEL             ....   68
 Basis Dimension        Dim             ....  339

ORBITAL ENERGIES
----------------

  NO   OCC          E(Eh)            E(eV)
   0   2.0000     -20.563599      -559.5640
   1   2.0000     -20.546096      -559.0877
   2   2.0000     -11.285486      -307.0937
   3   2.0000     -11.285230      -307.0867
   4   2.0000     -11.285177      -307.0853
   5   2.0000     -11.239037      -305.8297
   6   2.0000     -11.236248      -305.7539
   7   2.0000     -11.219561      -305.2998
   8   2.0000     -11.217573      -305.2457
   9   2.0000      -1.394443       -37.9447
  10   2.0000      -1.369124       -37.2558
  11   2.0000      -1.144995       -31.1569
  12   2.0000      -1.012921       -27.5630
  13   2.0000      -0.970139       -26.3988
  14   2.0000      -0.887528       -24.1509
  15   2.0000      -0.865498       -23.5514
  16   2.0000      -0.773174       -21.0391
  17   2.0000      -0.726128       -19.7590
  18   2.0000      -0.698174       -18.9983
  19   2.0000      -0.680363       -18.5136
  20   2.0000      -0.645123       -17.5547
  21   2.0000      -0.644263       -17.5313
  22   2.0000      -0.595217       -16.1967
  23   2.0000      -0.563316       -15.3286
  24   2.0000      -0.557254       -15.1636
  25   2.0000      -0.545964       -14.8564
  26   2.0000      -0.523124       -14.2349
  27   2.0000      -0.516038       -14.0421
  28   2.0000      -0.484364       -13.1802
  29   2.0000      -0.481286       -13.0965
  30   2.0000      -0.440129       -11.9765
  31   2.0000      -0.427002       -11.6193
  32   2.0000      -0.414257       -11.2725
  33   2.0000      -0.390961       -10.6386
  34   0.0000       0.129862         3.5337
  35   0.0000       0.149496         4.0680
  36   0.0000       0.165671         4.5081
  37   0.0000       0.171612         4.6698
  38   0.0000       0.196039         5.3345

MULLIKEN ATOMIC CHARGES
-----------------------
   0 C :   -0.441917
   1 C :    0.106476
   2 C :    0.017033
   3 C :   -0.225555
   4 C :   -0.051872
   5 C :   -0.023680
   6 O :   -0.463878
   7 C :   -0.072957
   8 O :   -0.319005
   9 H :    0.144704
  10 H :    0.151292
  11 H :    0.126909
  12 H :    0.128432
  13 H :    0.126367
  14 H :    0.123030
  15 H :    0.139248
  16 H :    0.095258
  17 H :    0.318884
  18 H :    0.121232
Sum of atomic charges:    0.0000000

LOEWDIN ATOMIC CHARGES
----------------------
   0 C :   -0.273243
   1 C :   -0.200823
   2 C :   -0.190485
   3 C :   -0.211265
   4 C :   -0.174644
   5 C :   -0.286230
   6 O :   -0.011735
   7 C :   -0.198106
   8 O :    0.162247
   9 H :    0.132778
  10 H :    0.135309
  11 H :    0.127605
  12 H :    0.132442
  13 H :    0.138875
  14 H :    0.140372
  15 H :    0.129415
  16 H :    0.139797
  17 H :    0.177610
  18 H :    0.130079

  Mayer bond orders larger than 0.1
B(  0-C ,  1-C ) :   0.8574 B(  0-C ,  9-H ) :   0.9414 B(  0-C , 10-H ) :   0.9422
B(  0-C , 11-H ) :   0.9352 B(  1-C ,  2-C ) :   0.8923 B(  1-C ,  5-C ) :   0.8941
B(  1-C ,  6-O ) :  -0.1154 B(  1-C ,  7-C ) :   0.8916 B(  2-C ,  3-C ) :   0.9517
B(  2-C ,  8-O ) :   0.8733 B(  2-C , 12-H ) :   0.9136 B(  3-C ,  4-C ) :   0.9160
B(  3-C , 13-H ) :   0.9322 B(  3-C , 14-H ) :   0.9050 B(  4-C ,  5-C ) :   0.8974
B(  4-C ,  7-C ) :   0.8392 B(  4-C , 15-H ) :   0.9110 B(  5-C ,  6-O ) :   1.1301
B(  5-C , 16-H ) :   0.9685 B(  6-O , 17-H ) :   0.8425 B(  7-C ,  8-O ) :   0.9743
B(  7-C , 18-H ) :   0.9105

MP2 TOTAL ENERGY:     -422.290166501 Eh
FINAL SINGLE POINT ENERGY      -422.290166501059

DIPOLE MOMENT
-------------
                                X             Y             Z
Electronic contribution:     -0.82346      -2.17680      -0.90183
Nuclear contribution   :      1.00357       1.97518       1.76555
                        -----------------------------------------
Total Dipole Moment    :      0.18011      -0.20162       0.86373
                        -----------------------------------------
Magnitude (a.u.)       :      0.90505
Magnitude (Debye)      :      2.30045

                             ****ORCA TERMINATED NORMALLY****
TOTAL RUN TIME: 0 days 0 hours 18 minutes 22 seconds 686 msec
