                         Program Version 3.0.3 - RELEASE   -
|  1> ! RI-MP2 RIJK def2-TZVP def2-TZVP/C def2-TZVP/JK TIGHTSCF
|  2> % maxcore 2000
|  3> % mp2 density relaxed end
|  4> *xyz 0 1
|  5>  C       -0.2015800020     1.3989152292    -0.0991413633
|  6>  C       -0.2983453801    -0.0945934041    -0.3554823277
|  7>  O       -1.2993306830    -0.6309604941     0.5010588916
|  8>  C       -1.4815295605    -2.0004534022     0.3405037696
|  9>  C       -2.7431293219    -2.5824252219     0.9037861975
| 10>  C       -2.5556699026    -2.4955021548    -0.5858892014
| 11>  C       -3.3558045371    -1.6813946560    -1.5939372379
| 12>  O       -3.1761863119    -2.7133846537    -2.5925378132
| 13>  C       -2.4992505285    -3.5799064695    -1.6546221986
| 14>  H        0.5713017910     1.8442010398    -0.7325501039
| 15>  H       -1.1544511089     1.8894220824    -0.3174982889
| 16>  H        0.0512230441     1.5923536646     0.9470928896
| 17>  H       -0.5475828921    -0.2972251862    -1.4079167964
| 18>  H        0.6664898049    -0.5867935959    -0.1509142523
| 19>  H       -0.5663827712    -2.5928890715     0.4157506500
| 20>  H       -2.6933723460    -3.5530302499     1.3871807304
| 21>  H       -3.4416887067    -1.8832329308     1.3529291026
| 22>  H       -4.4157588918    -1.5341534275    -1.3458945165
| 23>  H       -2.9265038642    -0.7212232872    -1.9044893558
| 24>  H       -1.5004310156    -3.8713228089    -2.0061528303
| 25>  H       -3.0829834359    -4.4864182818    -1.4417225152
| 26> *
| 27>
| 28>                          ****END OF INPUT****

CARTESIAN COORDINATES (ANGSTROEM)
---------------------------------
  C     -0.201580    1.398915   -0.099141
  C     -0.298345   -0.094593   -0.355482
  O     -1.299331   -0.630960    0.501059
  C     -1.481530   -2.000453    0.340504
  C     -2.743129   -2.582425    0.903786
  C     -2.555670   -2.495502   -0.585889
  C     -3.355805   -1.681395   -1.593937
  O     -3.176186   -2.713385   -2.592538
  C     -2.499251   -3.579906   -1.654622
  H      0.571302    1.844201   -0.732550
  H     -1.154451    1.889422   -0.317498
  H      0.051223    1.592354    0.947093
  H     -0.547583   -0.297225   -1.407917
  H      0.666490   -0.586794   -0.150914
  H     -0.566383   -2.592889    0.415751
  H     -2.693372   -3.553030    1.387181
  H     -3.441689   -1.883233    1.352929
  H     -4.415759   -1.534153   -1.345895
  H     -2.926504   -0.721223   -1.904489
  H     -1.500431   -3.871323   -2.006153
  H     -3.082983   -4.486418   -1.441723

 Total Charge           Charge          ....    0
 Multiplicity           Mult            ....    1
 Number of Electrons    NEL             ....   70
 Basis Dimension        Dim             ....  351

ORBITAL ENERGIES
----------------

  NO   OCC          E(Eh)            E(eV)
   0   2.0000     -20.564253      -559.5818
   1   2.0000     -20.547102      -559.1151
   2   2.0000     -11.287264      -307.1421
   3   2.0000     -11.280300      -306.9526
   4   2.0000     -11.280219      -306.9504
   5   2.0000     -11.278180      -306.8949
   6   2.0000     -11.240644      -305.8735
   7   2.0000     -11.230806      -305.6058
   8   2.0000     -11.218621      -305.2742
   9   2.0000      -1.389258       -37.8036
  10   2.0000      -1.374678       -37.4069
  11   2.0000      -1.142194       -31.0807
  12   2.0000      -1.017975       -27.7005
  13   2.0000      -0.936083       -25.4721
  14   2.0000      -0.935336       -25.4518
  15   2.0000      -0.846546       -23.0357
  16   2.0000      -0.821107       -22.3435
  17   2.0000      -0.743948       -20.2439
  18   2.0000      -0.699291       -19.0287
  19   2.0000      -0.691368       -18.8131
  20   2.0000      -0.665965       -18.1218
  21   2.0000      -0.641369       -17.4525
  22   2.0000      -0.603496       -16.4220
  23   2.0000      -0.592011       -16.1095
  24   2.0000      -0.566181       -15.4066
  25   2.0000      -0.560619       -15.2552
  26   2.0000      -0.540702       -14.7132
  27   2.0000      -0.532036       -14.4774
  28   2.0000      -0.518983       -14.1223
  29   2.0000      -0.495096       -13.4722
  30   2.0000      -0.470371       -12.7994
  31   2.0000      -0.463790       -12.6204
  32   2.0000      -0.434926       -11.8349
  33   2.0000      -0.408060       -11.1039
  34   2.0000      -0.377806       -10.2806
  35   0.0000       0.137066         3.7298
  36   0.0000       0.152156         4.1404
  37   0.0000       0.160502         4.3675
  38   0.0000       0.165114         4.4930
  39   0.0000       0.186536         5.0759

MULLIKEN ATOMIC CHARGES
-----------------------
   0 C :   -0.360481
   1 C :   -0.065630
   2 O :   -0.285947
   3 C :   -0.010762
   4 C :   -0.258189
   5 C :   -0.025177
   6 C :   -0.012888
   7 O :   -0.331505
   8 C :    0.005850
   9 H :    0.125105
  10 H :    0.129519
  11 H :    0.131636
  12 H :    0.106294
  13 H :    0.097508
  14 H :    0.100185
  15 H :    0.135308
  16 H :    0.138077
  17 H :    0.095477
  18 H :    0.099572
  19 H :    0.093747
  20 H :    0.092301
Sum of atomic charges:   -0.0000000

LOEWDIN ATOMIC CHARGES
----------------------
   0 C :   -0.315916
   1 C :   -0.340806
   2 O :    0.193670
   3 C :   -0.286948
   4 C :   -0.184463
   5 C :   -0.225484
   6 C :   -0.225902
   7 O :    0.112276
   8 C :   -0.232409
   9 H :    0.125469
  10 H :    0.123992
  11 H :    0.124984
  12 H :    0.118966
  13 H :    0.117989
  14 H :    0.135815
  15 H :    0.137285
  16 H :    0.144899
  17 H :    0.120215
  18 H :    0.119021
  19 H :    0.118541
  20 H :    0.118807

  Mayer bond orders larger than 0.1
B(  0-C ,  1-C ) :   0.9522 B(  0-C ,  9-H ) :   0.9326 B(  0-C , 10-H ) :   0.9371
B(  0-C , 11-H ) :   0.9347 B(  1-C ,  2-O ) :   0.8895 B(  1-C , 12-H ) :   0.9265
B(  1-C , 13-H ) :   0.9229 B(  2-O ,  3-C ) :   1.0275 B(  3-C ,  4-C ) :   0.9002
B(  3-C ,  5-C ) :   0.8431 B(  3-C , 14-H ) :   0.9383 B(  4-C ,  5-C ) :   0.8760
B(  4-C , 15-H ) :   0.9150 B(  4-C , 16-H ) :   0.9121 B(  5-C ,  6-C ) :   0.9692
B(  5-C ,  8-C ) :   0.9552 B(  6-C ,  7-O ) :   0.9548 B(  6-C , 17-H ) :   0.9094
B(  6-C , 18-H ) :   0.9105 B(  7-O ,  8-C ) :   0.9643 B(  8-C , 19-H ) :   0.9068
B(  8-C , 20-H ) :   0.9075

MP2 TOTAL ENERGY:     -423.459943120 Eh
FINAL SINGLE POINT ENERGY      -423.459943120048

DIPOLE MOMENT
-------------
                                X             Y             Z
Electronic contribution:     -3.47243      -4.31639      -1.29772
Nuclear contribution   :      3.96124       4.27385       1.71619
                        -----------------------------------------
Total Dipole Moment    :      0.48881      -0.04254       0.41847
                        -----------------------------------------
Magnitude (a.u.)       :      0.64487
Magnitude (Debye)      :      1.63914

                             ****ORCA TERMINATED NORMALLY****
TOTAL RUN TIME: 0 days 0 hours 17 minutes 32 seconds 218 msec
