                         Program Version 3.0.3 - RELEASE   -
|  1> ! RI-MP2 RIJK def2-TZVP def2-TZVP/C def2-TZVP/JK TIGHTSCF
|  2> % maxcore 2000
|  3> % mp2 density relaxed end
|  4> *xyz 0 1
|  5>  C        0.4530498859     1.3748967305    -0.1685315808
|  6>  C        0.1773740607    -0.0909969264     0.1730549221
|  7>  O        0.3873404844    -0.3541008730     1.5528433073
|  8>  C       -1.2349664926    -0.5089407100    -0.2272064184
|  9>  C       -1.7029736605    -1.9234582784     0.1761629786
| 10>  C       -2.7650561499    -1.1852117006     1.0047261275
| 11>  O       -2.2138970833     0.1106023244     0.6681583164
| 12>  C       -4.2009250011    -1.2887841935     0.5257300925
| 13>  O       -4.6911426391    -2.2871587968     0.0669536402
| 14>  H        1.4453015894     1.6610978168     0.1884842095
| 15>  H        0.4073000816     1.5463878076    -1.2491507494
| 16>  H       -0.2888896563     2.0241841835     0.3091050776
| 17>  H        0.8852155017    -0.7362887444    -0.3630098390
| 18>  H       -0.3072362769     0.1305144976     2.0171865050
| 19>  H       -1.4397729642    -0.2358717246    -1.2699894961
| 20>  H       -2.1026441944    -2.5559785192    -0.6162387488
| 21>  H       -0.9708085006    -2.4679237050     0.7711364215
| 22>  H       -2.7484982792    -1.3638136170     2.0900312897
| 23>  H       -4.7721088456    -0.3389709515     0.6313952347
| 24> *
| 25>
| 26>                          ****END OF INPUT****

CARTESIAN COORDINATES (ANGSTROEM)
---------------------------------
  C      0.453050    1.374897   -0.168532
  C      0.177374   -0.090997    0.173055
  O      0.387340   -0.354101    1.552843
  C     -1.234966   -0.508941   -0.227206
  C     -1.702974   -1.923458    0.176163
  C     -2.765056   -1.185212    1.004726
  O     -2.213897    0.110602    0.668158
  C     -4.200925   -1.288784    0.525730
  O     -4.691143   -2.287159    0.066954
  H      1.445302    1.661098    0.188484
  H      0.407300    1.546388   -1.249151
  H     -0.288890    2.024184    0.309105
  H      0.885216   -0.736289   -0.363010
  H     -0.307236    0.130514    2.017187
  H     -1.439773   -0.235872   -1.269989
  H     -2.102644   -2.555979   -0.616239
  H     -0.970809   -2.467924    0.771136
  H     -2.748498   -1.363814    2.090031
  H     -4.772109   -0.338971    0.631395

 Total Charge           Charge          ....    0
 Multiplicity           Mult            ....    1
 Number of Electrons    NEL             ....   70
 Basis Dimension        Dim             ....  339

ORBITAL ENERGIES
----------------

  NO   OCC          E(Eh)            E(eV)
   0   2.0000     -20.574333      -559.8561
   1   2.0000     -20.569997      -559.7381
   2   2.0000     -20.559803      -559.4607
   3   2.0000     -11.339822      -308.5722
   4   2.0000     -11.308335      -307.7155
   5   2.0000     -11.299129      -307.4649
   6   2.0000     -11.290216      -307.2224
   7   2.0000     -11.242157      -305.9147
   8   2.0000     -11.223092      -305.3959
   9   2.0000      -1.414874       -38.5007
  10   2.0000      -1.400226       -38.1021
  11   2.0000      -1.363621       -37.1060
  12   2.0000      -1.052590       -28.6424
  13   2.0000      -1.034880       -28.1605
  14   2.0000      -0.972275       -26.4569
  15   2.0000      -0.876533       -23.8517
  16   2.0000      -0.814935       -22.1755
  17   2.0000      -0.761502       -20.7215
  18   2.0000      -0.720466       -19.6049
  19   2.0000      -0.698049       -18.9949
  20   2.0000      -0.680432       -18.5155
  21   2.0000      -0.648334       -17.6421
  22   2.0000      -0.638548       -17.3758
  23   2.0000      -0.620661       -16.8890
  24   2.0000      -0.593162       -16.1408
  25   2.0000      -0.571163       -15.5421
  26   2.0000      -0.552872       -15.0444
  27   2.0000      -0.537151       -14.6166
  28   2.0000      -0.533890       -14.5279
  29   2.0000      -0.517180       -14.0732
  30   2.0000      -0.492829       -13.4106
  31   2.0000      -0.477423       -12.9914
  32   2.0000      -0.459814       -12.5122
  33   2.0000      -0.446756       -12.1569
  34   2.0000      -0.413748       -11.2587
  35   0.0000       0.115456         3.1417
  36   0.0000       0.141810         3.8588
  37   0.0000       0.144683         3.9370
  38   0.0000       0.159519         4.3407
  39   0.0000       0.178330         4.8526

MULLIKEN ATOMIC CHARGES
-----------------------
   0 C :   -0.402289
   1 C :    0.096616
   2 O :   -0.477744
   3 C :    0.032771
   4 C :   -0.256788
   5 C :    0.141173
   6 O :   -0.377971
   7 C :    0.055890
   8 O :   -0.260159
   9 H :    0.147510
  10 H :    0.123031
  11 H :    0.138322
  12 H :    0.101614
  13 H :    0.323079
  14 H :    0.102604
  15 H :    0.155405
  16 H :    0.141796
  17 H :    0.122680
  18 H :    0.092460
Sum of atomic charges:    0.0000000

LOEWDIN ATOMIC CHARGES
----------------------
   0 C :   -0.298920
   1 C :   -0.365082
   2 O :   -0.013557
   3 C :   -0.253787
   4 C :   -0.196394
   5 C :   -0.283474
   6 O :    0.143007
   7 C :   -0.271945
   8 O :    0.143661
   9 H :    0.127683
  10 H :    0.125614
  11 H :    0.127585
  12 H :    0.149538
  13 H :    0.178831
  14 H :    0.141166
  15 H :    0.139056
  16 H :    0.143929
  17 H :    0.146845
  18 H :    0.116244

  Mayer bond orders larger than 0.1
B(  0-C ,  1-C ) :   0.9378 B(  0-C ,  9-H ) :   0.9391 B(  0-C , 10-H ) :   0.9294
B(  0-C , 11-H ) :   0.9252 B(  1-C ,  2-O ) :   0.9033 B(  1-C ,  3-C ) :   0.9350
B(  1-C , 12-H ) :   0.9195 B(  2-O , 13-H ) :   0.8297 B(  3-C ,  4-C ) :   0.9231
B(  3-C ,  6-O ) :   0.8950 B(  3-C , 14-H ) :   0.9077 B(  4-C ,  5-C ) :   0.9342
B(  4-C , 15-H ) :   0.9267 B(  4-C , 16-H ) :   0.9181 B(  5-C ,  6-O ) :   0.8727
B(  5-C ,  7-C ) :   0.8650 B(  5-C , 17-H ) :   0.8892 B(  7-C ,  8-O ) :   1.9986
B(  7-C , 18-H ) :   0.9332

MP2 TOTAL ENERGY:     -459.417804082 Eh
FINAL SINGLE POINT ENERGY      -459.417804081920

DIPOLE MOMENT
-------------
                                X             Y             Z
Electronic contribution:     -6.65183      -3.60290       1.61790
Nuclear contribution   :      6.96534       4.02485      -1.73771
                        -----------------------------------------
Total Dipole Moment    :      0.31351       0.42195      -0.11981
                        -----------------------------------------
Magnitude (a.u.)       :      0.53915
Magnitude (Debye)      :      1.37041

                             ****ORCA TERMINATED NORMALLY****
TOTAL RUN TIME: 0 days 0 hours 19 minutes 16 seconds 252 msec
