                         Program Version 3.0.3 - RELEASE   -
|  1> ! RI-MP2 RIJK def2-TZVP def2-TZVP/C def2-TZVP/JK TIGHTSCF
|  2> % maxcore 2000
|  3> % mp2 density relaxed end
|  4> *xyz 0 1
|  5>  C        0.2675820190     1.5644804419     0.0651298431
|  6>  C        0.1038354630     0.0358982758     0.0792970184
|  7>  C        0.6958452589    -0.5467098316     1.3836631130
|  8>  C       -1.4030067483    -0.3393710962    -0.0681587611
|  9>  C       -2.2210521597     0.0293464986     1.1480386508
| 10>  O       -2.8094668468     1.0745062531     1.2807755905
| 11>  C        0.8364589363    -0.6907158175    -1.0766078884
| 12>  N        1.7324207339     0.0372927274    -1.7979897734
| 13>  O        0.6460896703    -1.8731892469    -1.2964100566
| 14>  H        1.3033714938     1.8598960324     0.2666307159
| 15>  H       -0.0454834774     1.9973655582    -0.8911131889
| 16>  H       -0.3562184109     2.0203586361     0.8383033424
| 17>  H        0.2337410054    -0.0907225902     2.2645458156
| 18>  H        0.5486822810    -1.6285607122     1.4235286740
| 19>  H        1.7714128396    -0.3492666999     1.4359753548
| 20>  H       -1.8226277986     0.1867343040    -0.9318912933
| 21>  H       -1.4609227640    -1.4173276589    -0.2426771438
| 22>  H       -2.2483041348    -0.7378098886     1.9544445270
| 23>  H        1.8668404801     1.0235605988    -1.6744006183
| 24>  H        2.2185453391    -0.4312697445    -2.5451204920
| 25> *
| 26>
| 27>                          ****END OF INPUT****

CARTESIAN COORDINATES (ANGSTROEM)
---------------------------------
  C      0.267582    1.564480    0.065130
  C      0.103835    0.035898    0.079297
  C      0.695845   -0.546710    1.383663
  C     -1.403007   -0.339371   -0.068159
  C     -2.221052    0.029346    1.148039
  O     -2.809467    1.074506    1.280776
  C      0.836459   -0.690716   -1.076608
  N      1.732421    0.037293   -1.797990
  O      0.646090   -1.873189   -1.296410
  H      1.303371    1.859896    0.266631
  H     -0.045483    1.997366   -0.891113
  H     -0.356218    2.020359    0.838303
  H      0.233741   -0.090723    2.264546
  H      0.548682   -1.628561    1.423529
  H      1.771413   -0.349267    1.435975
  H     -1.822628    0.186734   -0.931891
  H     -1.460923   -1.417328   -0.242677
  H     -2.248304   -0.737810    1.954445
  H      1.866840    1.023561   -1.674401
  H      2.218545   -0.431270   -2.545120

 Total Charge           Charge          ....    0
 Multiplicity           Mult            ....    1
 Number of Electrons    NEL             ....   70
 Basis Dimension        Dim             ....  345

ORBITAL ENERGIES
----------------

  NO   OCC          E(Eh)            E(eV)
   0   2.0000     -20.559751      -559.4593
   1   2.0000     -20.521690      -558.4236
   2   2.0000     -15.591339      -424.2619
   3   2.0000     -11.357065      -309.0415
   4   2.0000     -11.333978      -308.4132
   5   2.0000     -11.273518      -306.7680
   6   2.0000     -11.241326      -305.8920
   7   2.0000     -11.235909      -305.7446
   8   2.0000     -11.234805      -305.7146
   9   2.0000      -1.397836       -38.0371
  10   2.0000      -1.389048       -37.7979
  11   2.0000      -1.219709       -33.1900
  12   2.0000      -1.120372       -30.4869
  13   2.0000      -0.989791       -26.9336
  14   2.0000      -0.954936       -25.9851
  15   2.0000      -0.880995       -23.9731
  16   2.0000      -0.806673       -21.9507
  17   2.0000      -0.765591       -20.8328
  18   2.0000      -0.728216       -19.8158
  19   2.0000      -0.683340       -18.5946
  20   2.0000      -0.663743       -18.0614
  21   2.0000      -0.639177       -17.3929
  22   2.0000      -0.632380       -17.2079
  23   2.0000      -0.605758       -16.4835
  24   2.0000      -0.595685       -16.2094
  25   2.0000      -0.574085       -15.6216
  26   2.0000      -0.555846       -15.1253
  27   2.0000      -0.538674       -14.6581
  28   2.0000      -0.534069       -14.5328
  29   2.0000      -0.533388       -14.5142
  30   2.0000      -0.488512       -13.2931
  31   2.0000      -0.477252       -12.9867
  32   2.0000      -0.434991       -11.8367
  33   2.0000      -0.422041       -11.4843
  34   2.0000      -0.412000       -11.2111
  35   0.0000       0.114324         3.1109
  36   0.0000       0.126649         3.4463
  37   0.0000       0.148291         4.0352
  38   0.0000       0.163746         4.4557
  39   0.0000       0.173777         4.7287

MULLIKEN ATOMIC CHARGES
-----------------------
   0 C :   -0.504347
   1 C :    0.119957
   2 C :   -0.454808
   3 C :   -0.207575
   4 C :    0.068877
   5 O :   -0.266812
   6 C :    0.253459
   7 N :   -0.464185
   8 O :   -0.357653
   9 H :    0.139368
  10 H :    0.150756
  11 H :    0.166557
  12 H :    0.145109
  13 H :    0.162299
  14 H :    0.138068
  15 H :    0.124118
  16 H :    0.165986
  17 H :    0.093350
  18 H :    0.268060
  19 H :    0.259417
Sum of atomic charges:    0.0000000

LOEWDIN ATOMIC CHARGES
----------------------
   0 C :   -0.274553
   1 C :   -0.282511
   2 C :   -0.256604
   3 C :   -0.215692
   4 C :   -0.295367
   5 O :    0.128461
   6 C :   -0.439484
   7 N :   -0.002752
   8 O :    0.084970
   9 H :    0.123799
  10 H :    0.127503
  11 H :    0.137431
  12 H :    0.128351
  13 H :    0.135574
  14 H :    0.130134
  15 H :    0.153110
  16 H :    0.159232
  17 H :    0.111575
  18 H :    0.171269
  19 H :    0.175551

  Mayer bond orders larger than 0.1
B(  0-C ,  1-C ) :   0.8765 B(  0-C ,  9-H ) :   0.9389 B(  0-C , 10-H ) :   0.9411
B(  0-C , 11-H ) :   0.9158 B(  1-C ,  2-C ) :   0.8948 B(  1-C ,  3-C ) :   0.8878
B(  1-C ,  6-C ) :   0.8488 B(  2-C , 12-H ) :   0.9295 B(  2-C , 13-H ) :   0.9337
B(  2-C , 14-H ) :   0.9297 B(  3-C ,  4-C ) :   0.8563 B(  3-C , 15-H ) :   0.9113
B(  3-C , 16-H ) :   0.9076 B(  4-C ,  5-O ) :   1.9785 B(  4-C , 17-H ) :   0.9457
B(  6-C ,  7-N ) :   1.1701 B(  6-C ,  8-O ) :   1.9624 B(  7-N , 18-H ) :   0.8644
B(  7-N , 19-H ) :   0.8572

MP2 TOTAL ENERGY:     -439.615949312 Eh
FINAL SINGLE POINT ENERGY      -439.615949312048

DIPOLE MOMENT
-------------
                                X             Y             Z
Electronic contribution:     -3.11659      -2.43809      -2.43824
Nuclear contribution   :      4.18608       3.00593       2.18186
                        -----------------------------------------
Total Dipole Moment    :      1.06949       0.56784      -0.25638
                        -----------------------------------------
Magnitude (a.u.)       :      1.23773
Magnitude (Debye)      :      3.14607

                             ****ORCA TERMINATED NORMALLY****
TOTAL RUN TIME: 0 days 0 hours 21 minutes 46 seconds 641 msec
