                         Program Version 3.0.3 - RELEASE   -
|  1> ! RI-MP2 RIJK def2-TZVP def2-TZVP/C def2-TZVP/JK TIGHTSCF
|  2> % maxcore 2000
|  3> % mp2 density relaxed end
|  4> *xyz 0 1
|  5>  C       -0.0217778067     1.4845659830    -0.0859328366
|  6>  C       -0.0048238337    -0.0228743844    -0.0478640890
|  7>  C        0.5460619630    -0.9442549003    -1.1548740235
|  8>  C        0.0525887074    -1.9245441740    -0.0751419337
|  9>  C        0.0977114429    -3.4289910294    -0.0960896569
| 10>  C        0.5288089152    -0.9785087955     1.0921191355
| 11>  C       -0.8515490327    -1.0832226659     1.7743499100
| 12>  O       -1.3048260249    -0.1039192970     2.6743522995
| 13>  C       -1.1901579279    -1.0186214220     0.2700429228
| 14>  H        0.9957274838     1.8800451621    -0.1827800677
| 15>  H       -0.5993051557     1.8428403049    -0.9457005488
| 16>  H       -0.4607286218     1.9390088310     0.8096460630
| 17>  H        0.0041253576    -0.9462760763    -2.1082231833
| 18>  H        1.6277214840    -0.9083963364    -1.3317841317
| 19>  H        1.1293983185    -3.7873834788    -0.1854226431
| 20>  H       -0.3280745903    -3.8615116397     0.8152858974
| 21>  H       -0.4660053978    -3.8246092512    -0.9484467764
| 22>  H        1.5279872641    -0.9601940644     1.5338269061
| 23>  H       -1.0614088344    -2.0412204364     2.2599373261
| 24>  H       -1.1431734404     0.7637651884     2.2929505121
| 25>  H       -2.1610269002    -1.0462789777    -0.2304063816
| 26> *
| 27>
| 28>                          ****END OF INPUT****

CARTESIAN COORDINATES (ANGSTROEM)
---------------------------------
  C     -0.021778    1.484566   -0.085933
  C     -0.004824   -0.022874   -0.047864
  C      0.546062   -0.944255   -1.154874
  C      0.052589   -1.924544   -0.075142
  C      0.097711   -3.428991   -0.096090
  C      0.528809   -0.978509    1.092119
  C     -0.851549   -1.083223    1.774350
  O     -1.304826   -0.103919    2.674352
  C     -1.190158   -1.018621    0.270043
  H      0.995727    1.880045   -0.182780
  H     -0.599305    1.842840   -0.945701
  H     -0.460729    1.939009    0.809646
  H      0.004125   -0.946276   -2.108223
  H      1.627721   -0.908396   -1.331784
  H      1.129398   -3.787383   -0.185423
  H     -0.328075   -3.861512    0.815286
  H     -0.466005   -3.824609   -0.948447
  H      1.527987   -0.960194    1.533827
  H     -1.061409   -2.041220    2.259937
  H     -1.143173    0.763765    2.292951
  H     -2.161027   -1.046279   -0.230406

 Total Charge           Charge          ....    0
 Multiplicity           Mult            ....    1
 Number of Electrons    NEL             ....   68
 Basis Dimension        Dim             ....  351

ORBITAL ENERGIES
----------------

  NO   OCC          E(Eh)            E(eV)
   0   2.0000     -20.551025      -559.2218
   1   2.0000     -11.277683      -306.8814
   2   2.0000     -11.250413      -306.1393
   3   2.0000     -11.248848      -306.0967
   4   2.0000     -11.234706      -305.7119
   5   2.0000     -11.234693      -305.7115
   6   2.0000     -11.226391      -305.4856
   7   2.0000     -11.221104      -305.3418
   8   2.0000     -11.218306      -305.2656
   9   2.0000      -1.361381       -37.0451
  10   2.0000      -1.236934       -33.6587
  11   2.0000      -1.011133       -27.5143
  12   2.0000      -0.997144       -27.1337
  13   2.0000      -0.955184       -25.9919
  14   2.0000      -0.866746       -23.5854
  15   2.0000      -0.832876       -22.6637
  16   2.0000      -0.769171       -20.9302
  17   2.0000      -0.708860       -19.2891
  18   2.0000      -0.676201       -18.4004
  19   2.0000      -0.625803       -17.0290
  20   2.0000      -0.611341       -16.6354
  21   2.0000      -0.608806       -16.5665
  22   2.0000      -0.577568       -15.7164
  23   2.0000      -0.570464       -15.5231
  24   2.0000      -0.563431       -15.3317
  25   2.0000      -0.555284       -15.1100
  26   2.0000      -0.552907       -15.0454
  27   2.0000      -0.543375       -14.7860
  28   2.0000      -0.446706       -12.1555
  29   2.0000      -0.427754       -11.6398
  30   2.0000      -0.426432       -11.6038
  31   2.0000      -0.413880       -11.2623
  32   2.0000      -0.411709       -11.2032
  33   2.0000      -0.394962       -10.7475
  34   0.0000       0.133098         3.6218
  35   0.0000       0.142928         3.8893
  36   0.0000       0.169108         4.6017
  37   0.0000       0.185035         5.0351
  38   0.0000       0.192588         5.2406

MULLIKEN ATOMIC CHARGES
-----------------------
   0 C :   -0.383230
   1 C :   -0.113201
   2 C :   -0.179618
   3 C :   -0.064205
   4 C :   -0.419392
   5 C :   -0.012984
   6 C :   -0.015758
   7 O :   -0.455211
   8 C :   -0.013064
   9 H :    0.141000
  10 H :    0.140999
  11 H :    0.096399
  12 H :    0.104550
  13 H :    0.104550
  14 H :    0.136002
  15 H :    0.136248
  16 H :    0.136001
  17 H :    0.124166
  18 H :    0.102685
  19 H :    0.309906
  20 H :    0.124157
Sum of atomic charges:    0.0000000

LOEWDIN ATOMIC CHARGES
----------------------
   0 C :   -0.281200
   1 C :   -0.191740
   2 C :   -0.161627
   3 C :   -0.186827
   4 C :   -0.276826
   5 C :   -0.093412
   6 C :   -0.290911
   7 O :   -0.012456
   8 C :   -0.093423
   9 H :    0.131641
  10 H :    0.131639
  11 H :    0.117205
  12 H :    0.127972
  13 H :    0.127972
  14 H :    0.129655
  15 H :    0.129664
  16 H :    0.129654
  17 H :    0.128696
  18 H :    0.136632
  19 H :    0.168996
  20 H :    0.128696

  Mayer bond orders larger than 0.1
B(  0-C ,  1-C ) :   0.8537 B(  0-C ,  9-H ) :   0.9442 B(  0-C , 10-H ) :   0.9442
B(  0-C , 11-H ) :   0.9363 B(  1-C ,  2-C ) :   0.9019 B(  1-C ,  5-C ) :   0.7946
B(  1-C ,  8-C ) :   0.7947 B(  2-C ,  3-C ) :   0.8921 B(  2-C , 12-H ) :   0.9189
B(  2-C , 13-H ) :   0.9189 B(  3-C ,  4-C ) :   0.8525 B(  3-C ,  5-C ) :   0.8156
B(  3-C ,  8-C ) :   0.8156 B(  4-C , 14-H ) :   0.9444 B(  4-C , 15-H ) :   0.9417
B(  4-C , 16-H ) :   0.9444 B(  5-C ,  6-C ) :   0.8615 B(  5-C , 17-H ) :   0.8929
B(  6-C ,  7-O ) :   0.9880 B(  6-C ,  8-C ) :   0.8616 B(  6-C , 18-H ) :   0.9666
B(  7-O , 19-H ) :   0.8416 B(  8-C , 20-H ) :   0.8929

MP2 TOTAL ENERGY:     -386.352271775 Eh
FINAL SINGLE POINT ENERGY      -386.352271774948

DIPOLE MOMENT
-------------
                                X             Y             Z
Electronic contribution:     -1.68878       0.60777       3.50187
Nuclear contribution   :      2.00359      -0.49042      -4.16640
                        -----------------------------------------
Total Dipole Moment    :      0.31481       0.11735      -0.66453
                        -----------------------------------------
Magnitude (a.u.)       :      0.74463
Magnitude (Debye)      :      1.89271

                             ****ORCA TERMINATED NORMALLY****
TOTAL RUN TIME: 0 days 0 hours 19 minutes 39 seconds 399 msec
