                         Program Version 3.0.3 - RELEASE   -
|  1> ! RI-MP2 RIJK def2-TZVP def2-TZVP/C def2-TZVP/JK TIGHTSCF
|  2> % maxcore 2000
|  3> % mp2 density relaxed end
|  4> *xyz 0 1
|  5>  C       -0.0386535577     1.4844732361     0.0226462539
|  6>  C       -0.0010325921     0.0305974374    -0.0004712413
|  7>  C        0.0383155988    -1.1716583184    -0.0276897292
|  8>  C        0.0392347567    -2.6475768494    -0.0406290849
|  9>  O       -1.2949716982    -3.1592707186    -0.1378578606
| 10>  C        0.7658258750    -3.1427841519    -1.2226771185
| 11>  C        1.3737207504    -3.5368086660    -2.1785439013
| 12>  C        0.6925267803    -3.1466736075     1.1898089922
| 13>  C        1.1827190341    -3.5535319219     2.2076396880
| 14>  H        0.6598685838     1.9060439472    -0.7080252316
| 15>  H       -1.0396755661     1.8565878239    -0.2205486340
| 16>  H        0.2333214652     1.8728944842     1.0098719966
| 17>  H       -1.7787297233    -2.8065337354     0.6192810738
| 18>  H        1.9082147265    -3.8879639002    -3.0266083648
| 19>  H        1.6262245966    -3.9162990693     3.1021172816
| 20> *
| 21>
| 22>                          ****END OF INPUT****

CARTESIAN COORDINATES (ANGSTROEM)
---------------------------------
  C     -0.038654    1.484473    0.022646
  C     -0.001033    0.030597   -0.000471
  C      0.038316   -1.171658   -0.027690
  C      0.039235   -2.647577   -0.040629
  O     -1.294972   -3.159271   -0.137858
  C      0.765826   -3.142784   -1.222677
  C      1.373721   -3.536809   -2.178544
  C      0.692527   -3.146674    1.189809
  C      1.182719   -3.553532    2.207640
  H      0.659869    1.906044   -0.708025
  H     -1.039676    1.856588   -0.220549
  H      0.233321    1.872894    1.009872
  H     -1.778730   -2.806534    0.619281
  H      1.908215   -3.887964   -3.026608
  H      1.626225   -3.916299    3.102117

 Total Charge           Charge          ....    0
 Multiplicity           Mult            ....    1
 Number of Electrons    NEL             ....   62
 Basis Dimension        Dim             ....  315

ORBITAL ENERGIES
----------------

  NO   OCC          E(Eh)            E(eV)
   0   2.0000     -20.582038      -560.0657
   1   2.0000     -11.379568      -309.6538
   2   2.0000     -11.256680      -306.3098
   3   2.0000     -11.248486      -306.0869
   4   2.0000     -11.246206      -306.0248
   5   2.0000     -11.243937      -305.9631
   6   2.0000     -11.241207      -305.8888
   7   2.0000     -11.235864      -305.7434
   8   2.0000     -11.234052      -305.6941
   9   2.0000      -1.392944       -37.9039
  10   2.0000      -1.112739       -30.2792
  11   2.0000      -1.060952       -28.8700
  12   2.0000      -1.031683       -28.0735
  13   2.0000      -0.990815       -26.9615
  14   2.0000      -0.939350       -25.5610
  15   2.0000      -0.781525       -21.2664
  16   2.0000      -0.755955       -20.5706
  17   2.0000      -0.723954       -19.6998
  18   2.0000      -0.699178       -19.0256
  19   2.0000      -0.670239       -18.2381
  20   2.0000      -0.640000       -17.4153
  21   2.0000      -0.597967       -16.2715
  22   2.0000      -0.596645       -16.2355
  23   2.0000      -0.576228       -15.6800
  24   2.0000      -0.510920       -13.9029
  25   2.0000      -0.425206       -11.5705
  26   2.0000      -0.419637       -11.4189
  27   2.0000      -0.417111       -11.3502
  28   2.0000      -0.394207       -10.7269
  29   2.0000      -0.384812       -10.4713
  30   2.0000      -0.379216       -10.3190
  31   0.0000       0.115634         3.1466
  32   0.0000       0.132524         3.6062
  33   0.0000       0.155312         4.2263
  34   0.0000       0.158009         4.2996
  35   0.0000       0.161146         4.3850

MULLIKEN ATOMIC CHARGES
-----------------------
   0 C :   -0.489429
   1 C :    0.083471
   2 C :   -0.073229
   3 C :   -0.094618
   4 O :   -0.428198
   5 C :    0.046063
   6 C :   -0.097482
   7 C :   -0.034404
   8 C :   -0.136691
   9 H :    0.169474
  10 H :    0.167529
  11 H :    0.167567
  12 H :    0.324667
  13 H :    0.197218
  14 H :    0.198062
Sum of atomic charges:    0.0000000

LOEWDIN ATOMIC CHARGES
----------------------
   0 C :   -0.288238
   1 C :   -0.072680
   2 C :   -0.018593
   3 C :   -0.355199
   4 O :    0.045193
   5 C :   -0.026447
   6 C :   -0.058184
   7 C :   -0.038828
   8 C :   -0.065658
   9 H :    0.144844
  10 H :    0.144089
  11 H :    0.143315
  12 H :    0.185798
  13 H :    0.130309
  14 H :    0.130279

  Mayer bond orders larger than 0.1
B(  0-C ,  1-C ) :   0.8431 B(  0-C ,  9-H ) :   0.9474 B(  0-C , 10-H ) :   0.9444
B(  0-C , 11-H ) :   0.9487 B(  1-C ,  2-C ) :   2.6137 B(  1-C ,  3-C ) :  -0.1179
B(  2-C ,  3-C ) :   1.1798 B(  3-C ,  4-O ) :   1.0131 B(  3-C ,  5-C ) :   1.0826
B(  3-C ,  6-C ) :  -0.1282 B(  3-C ,  7-C ) :   1.2381 B(  3-C ,  8-C ) :  -0.1021
B(  4-O , 12-H ) :   0.8360 B(  5-C ,  6-C ) :   2.5552 B(  6-C , 13-H ) :   0.8912
B(  7-C ,  8-C ) :   2.5461 B(  8-C , 14-H ) :   0.8903

MP2 TOTAL ENERGY:     -382.672615130 Eh
FINAL SINGLE POINT ENERGY      -382.672615130379

DIPOLE MOMENT
-------------
                                X             Y             Z
Electronic contribution:      0.10913      -6.17159      -0.37150
Nuclear contribution   :      0.07740       6.93974       0.82271
                        -----------------------------------------
Total Dipole Moment    :      0.18652       0.76815       0.45121
                        -----------------------------------------
Magnitude (a.u.)       :      0.91018
Magnitude (Debye)      :      2.31349

                             ****ORCA TERMINATED NORMALLY****
TOTAL RUN TIME: 0 days 0 hours 12 minutes 48 seconds 612 msec
