                         Program Version 3.0.3 - RELEASE   -
|  1> ! RI-MP2 RIJK def2-TZVP def2-TZVP/C def2-TZVP/JK TIGHTSCF
|  2> % maxcore 2000
|  3> % mp2 density relaxed end
|  4> *xyz 0 1
|  5>  C        0.0344867486     1.4257158434    -0.4584950160
|  6>  C       -0.0816673467     0.1006650372     0.3115656438
|  7>  C       -1.4314368609    -0.5379513309     0.1751104150
|  8>  N       -2.1991346397    -0.6566228173     1.2331287994
|  9>  O       -3.3827689002    -1.2762604481     0.7622272503
| 10>  C       -3.2608461643    -1.4947332387    -0.5518728840
| 11>  N       -4.3578282276    -2.0402356819    -1.1753287330
| 12>  C       -2.0470486766    -1.0544722339    -1.0000054661
| 13>  H        1.0324662924     1.8566345725    -0.3345091906
| 14>  H       -0.1395602154     1.2822054511    -1.5294885561
| 15>  H       -0.6987671697     2.1516096706    -0.0950695505
| 16>  H        0.6827869278    -0.5994561257    -0.0472608494
| 17>  H        0.1080902249     0.2652641146     1.3761688807
| 18>  H       -4.9682319104    -2.5549905461    -0.5562802050
| 19>  H       -4.1542896949    -2.5408308415    -2.0270101073
| 20>  H       -1.6572004171    -1.0890539555    -2.0031409511
| 21> *
| 22>
| 23>                          ****END OF INPUT****

CARTESIAN COORDINATES (ANGSTROEM)
---------------------------------
  C      0.034487    1.425716   -0.458495
  C     -0.081667    0.100665    0.311566
  C     -1.431437   -0.537951    0.175110
  N     -2.199135   -0.656623    1.233129
  O     -3.382769   -1.276260    0.762227
  C     -3.260846   -1.494733   -0.551873
  N     -4.357828   -2.040236   -1.175329
  C     -2.047049   -1.054472   -1.000005
  H      1.032466    1.856635   -0.334509
  H     -0.139560    1.282205   -1.529489
  H     -0.698767    2.151610   -0.095070
  H      0.682787   -0.599456   -0.047261
  H      0.108090    0.265264    1.376169
  H     -4.968232   -2.554991   -0.556280
  H     -4.154290   -2.540831   -2.027010
  H     -1.657200   -1.089054   -2.003141

 Total Charge           Charge          ....    0
 Multiplicity           Mult            ....    1
 Number of Electrons    NEL             ....   60
 Basis Dimension        Dim             ....  296

ORBITAL ENERGIES
----------------

  NO   OCC          E(Eh)            E(eV)
   0   2.0000     -20.625534      -561.2493
   1   2.0000     -15.594256      -424.3413
   2   2.0000     -15.593765      -424.3279
   3   2.0000     -11.351166      -308.8809
   4   2.0000     -11.274962      -306.8073
   5   2.0000     -11.236725      -305.7668
   6   2.0000     -11.223058      -305.3949
   7   2.0000     -11.214110      -305.1515
   8   2.0000      -1.478249       -40.2252
   9   2.0000      -1.242696       -33.8155
  10   2.0000      -1.159493       -31.5514
  11   2.0000      -1.039925       -28.2978
  12   2.0000      -1.028286       -27.9811
  13   2.0000      -0.879443       -23.9309
  14   2.0000      -0.813967       -22.1492
  15   2.0000      -0.778014       -21.1708
  16   2.0000      -0.718752       -19.5582
  17   2.0000      -0.685184       -18.6448
  18   2.0000      -0.656055       -17.8522
  19   2.0000      -0.636911       -17.3312
  20   2.0000      -0.603161       -16.4128
  21   2.0000      -0.585956       -15.9447
  22   2.0000      -0.561846       -15.2886
  23   2.0000      -0.531571       -14.4648
  24   2.0000      -0.506183       -13.7739
  25   2.0000      -0.498694       -13.5702
  26   2.0000      -0.495069       -13.4715
  27   2.0000      -0.461401       -12.5554
  28   2.0000      -0.406572       -11.0634
  29   2.0000      -0.324988        -8.8434
  30   0.0000       0.123559         3.3622
  31   0.0000       0.137582         3.7438
  32   0.0000       0.160926         4.3790
  33   0.0000       0.172152         4.6845
  34   0.0000       0.181020         4.9258

MULLIKEN ATOMIC CHARGES
-----------------------
   0 C :   -0.384517
   1 C :   -0.241443
   2 C :    0.114534
   3 N :   -0.142287
   4 O :   -0.139177
   5 C :    0.286782
   6 N :   -0.512250
   7 C :   -0.309912
   8 H :    0.132211
   9 H :    0.121862
  10 H :    0.137019
  11 H :    0.122484
  12 H :    0.138596
  13 H :    0.267854
  14 H :    0.262478
  15 H :    0.145764
Sum of atomic charges:   -0.0000000

LOEWDIN ATOMIC CHARGES
----------------------
   0 C :   -0.306403
   1 C :   -0.250442
   2 C :   -0.294165
   3 N :    0.048053
   4 O :    0.267776
   5 C :   -0.386403
   6 N :   -0.054888
   7 C :   -0.186412
   8 H :    0.121436
   9 H :    0.120056
  10 H :    0.125771
  11 H :    0.145372
  12 H :    0.149944
  13 H :    0.178683
  14 H :    0.177665
  15 H :    0.143957

  Mayer bond orders larger than 0.1
B(  0-C ,  1-C ) :   0.9114 B(  0-C ,  8-H ) :   0.9365 B(  0-C ,  9-H ) :   0.9378
B(  0-C , 10-H ) :   0.9364 B(  1-C ,  2-C ) :   0.8847 B(  1-C , 11-H ) :   0.9356
B(  1-C , 12-H ) :   0.9454 B(  2-C ,  3-N ) :   1.6468 B(  2-C ,  7-C ) :   1.2061
B(  3-N ,  4-O ) :   0.8345 B(  4-O ,  5-C ) :   1.1555 B(  5-C ,  6-N ) :   1.0883
B(  5-C ,  7-C ) :   1.5008 B(  6-N , 13-H ) :   0.8647 B(  6-N , 14-H ) :   0.8722
B(  7-C , 15-H ) :   0.8995

MP2 TOTAL ENERGY:     -379.285589010 Eh
FINAL SINGLE POINT ENERGY      -379.285589010260

DIPOLE MOMENT
-------------
                                X             Y             Z
Electronic contribution:     -6.62138      -4.72516       2.95538
Nuclear contribution   :      6.66605       4.06440      -4.17358
                        -----------------------------------------
Total Dipole Moment    :      0.04467      -0.66076      -1.21820
                        -----------------------------------------
Magnitude (a.u.)       :      1.38658
Magnitude (Debye)      :      3.52442

                             ****ORCA TERMINATED NORMALLY****
TOTAL RUN TIME: 0 days 0 hours 11 minutes 7 seconds 630 msec
