                         Program Version 3.0.3 - RELEASE   -
|  1> ! RI-MP2 RIJK def2-TZVP def2-TZVP/C def2-TZVP/JK TIGHTSCF
|  2> % maxcore 2000
|  3> % mp2 density relaxed end
|  4> *xyz 0 1
|  5>  C       -0.2213965116     1.5121620247     0.0474378078
|  6>  C       -0.0233764686     0.0129385197     0.1078495251
|  7>  C        1.3291611605    -0.6106009704    -0.1413753455
|  8>  C        0.7064762365    -0.6810817357     1.2366178537
|  9>  C        1.3177609115     0.0534707398     2.4115832565
| 10>  C        2.4320973147    -0.7703940876     3.0752062483
| 11>  N        3.0432406302    -0.1001052033     4.2130312139
| 12>  C        2.7407030801    -0.4035205956     5.5034119310
| 13>  O        1.9772505785    -1.2766103546     5.8588097402
| 14>  H        0.6621112234     2.0588010800     0.3896166448
| 15>  H       -0.4224842533     1.8331177638    -0.9806308655
| 16>  H       -1.0684565793     1.8301053732     0.6657488946
| 17>  H       -0.8676965454    -0.5479098346    -0.2856923186
| 18>  H        1.3964879466    -1.5129611749    -0.7392925898
| 19>  H        2.1675028013     0.0685536629    -0.2720875873
| 20>  H        0.2974315276    -1.6517455943     1.5096640296
| 21>  H        1.7276957619     1.0185019245     2.0905444820
| 22>  H        0.5523073261     0.2728756468     3.1661503418
| 23>  H        2.0282401340    -1.7117712534     3.4554150804
| 24>  H        3.2083216876    -1.0104922730     2.3396700018
| 25>  H        3.6602022948     0.6786811375     4.0451551115
| 26>  H        3.2906732629     0.2443958845     6.2156070336
| 27> *
| 28>
| 29>                          ****END OF INPUT****

CARTESIAN COORDINATES (ANGSTROEM)
---------------------------------
  C     -0.221397    1.512162    0.047438
  C     -0.023376    0.012939    0.107850
  C      1.329161   -0.610601   -0.141375
  C      0.706476   -0.681082    1.236618
  C      1.317761    0.053471    2.411583
  C      2.432097   -0.770394    3.075206
  N      3.043241   -0.100105    4.213031
  C      2.740703   -0.403521    5.503412
  O      1.977251   -1.276610    5.858810
  H      0.662111    2.058801    0.389617
  H     -0.422484    1.833118   -0.980631
  H     -1.068457    1.830105    0.665749
  H     -0.867697   -0.547910   -0.285692
  H      1.396488   -1.512961   -0.739293
  H      2.167503    0.068554   -0.272088
  H      0.297432   -1.651746    1.509664
  H      1.727696    1.018502    2.090544
  H      0.552307    0.272876    3.166150
  H      2.028240   -1.711771    3.455415
  H      3.208322   -1.010492    2.339670
  H      3.660202    0.678681    4.045155
  H      3.290673    0.244396    6.215607

 Total Charge           Charge          ....    0
 Multiplicity           Mult            ....    1
 Number of Electrons    NEL             ....   70
 Basis Dimension        Dim             ....  357

ORBITAL ENERGIES
----------------

  NO   OCC          E(Eh)            E(eV)
   0   2.0000     -20.518847      -558.3462
   1   2.0000     -15.587002      -424.1439
   2   2.0000     -11.346084      -308.7426
   3   2.0000     -11.262828      -306.4771
   4   2.0000     -11.232290      -305.6461
   5   2.0000     -11.230970      -305.6102
   6   2.0000     -11.228026      -305.5301
   7   2.0000     -11.223004      -305.3935
   8   2.0000     -11.219496      -305.2980
   9   2.0000      -1.379460       -37.5370
  10   2.0000      -1.233925       -33.5768
  11   2.0000      -1.151769       -31.3412
  12   2.0000      -1.028717       -27.9928
  13   2.0000      -0.962967       -26.2037
  14   2.0000      -0.896705       -24.4006
  15   2.0000      -0.805576       -21.9208
  16   2.0000      -0.797490       -21.7008
  17   2.0000      -0.754736       -20.5374
  18   2.0000      -0.736233       -20.0339
  19   2.0000      -0.676889       -18.4191
  20   2.0000      -0.645794       -17.5729
  21   2.0000      -0.616205       -16.7678
  22   2.0000      -0.602734       -16.4012
  23   2.0000      -0.590119       -16.0580
  24   2.0000      -0.574804       -15.6412
  25   2.0000      -0.565887       -15.3986
  26   2.0000      -0.546261       -14.8645
  27   2.0000      -0.521758       -14.1977
  28   2.0000      -0.507047       -13.7975
  29   2.0000      -0.503626       -13.7044
  30   2.0000      -0.481193       -13.0939
  31   2.0000      -0.428951       -11.6723
  32   2.0000      -0.411162       -11.1883
  33   2.0000      -0.405280       -11.0282
  34   2.0000      -0.381323       -10.3763
  35   0.0000       0.124083         3.3765
  36   0.0000       0.143196         3.8966
  37   0.0000       0.158775         4.3205
  38   0.0000       0.163788         4.4569
  39   0.0000       0.178703         4.8628

MULLIKEN ATOMIC CHARGES
-----------------------
   0 C :   -0.398191
   1 C :   -0.053106
   2 C :   -0.306126
   3 C :   -0.108692
   4 C :   -0.233616
   5 C :   -0.124516
   6 N :   -0.325627
   7 C :    0.197238
   8 O :   -0.371210
   9 H :    0.117340
  10 H :    0.136867
  11 H :    0.132847
  12 H :    0.117469
  13 H :    0.133343
  14 H :    0.118372
  15 H :    0.123510
  16 H :    0.097528
  17 H :    0.138691
  18 H :    0.152798
  19 H :    0.141360
  20 H :    0.237194
  21 H :    0.076528
Sum of atomic charges:   -0.0000000

LOEWDIN ATOMIC CHARGES
----------------------
   0 C :   -0.296292
   1 C :   -0.234492
   2 C :   -0.214535
   3 C :   -0.212861
   4 C :   -0.252003
   5 C :   -0.271388
   6 N :    0.081334
   7 C :   -0.441683
   8 O :    0.051106
   9 H :    0.121610
  10 H :    0.126356
  11 H :    0.125814
  12 H :    0.147785
  13 H :    0.129741
  14 H :    0.133229
  15 H :    0.151399
  16 H :    0.135791
  17 H :    0.146148
  18 H :    0.147735
  19 H :    0.134691
  20 H :    0.182464
  21 H :    0.108052

  Mayer bond orders larger than 0.1
B(  0-C ,  1-C ) :   0.9160 B(  0-C ,  9-H ) :   0.9367 B(  0-C , 10-H ) :   0.9385
B(  0-C , 11-H ) :   0.9391 B(  1-C ,  2-C ) :   0.8929 B(  1-C ,  3-C ) :   0.8658
B(  1-C , 12-H ) :   0.9308 B(  2-C ,  3-C ) :   0.8867 B(  2-C , 13-H ) :   0.9269
B(  2-C , 14-H ) :   0.9256 B(  3-C ,  4-C ) :   0.9173 B(  3-C , 15-H ) :   0.9264
B(  4-C ,  5-C ) :   0.9237 B(  4-C , 16-H ) :   0.9349 B(  4-C , 17-H ) :   0.9287
B(  5-C ,  6-N ) :   0.8167 B(  5-C , 18-H ) :   0.9167 B(  5-C , 19-H ) :   0.9436
B(  6-N ,  7-C ) :   1.1674 B(  6-N , 20-H ) :   0.8746 B(  7-C ,  8-O ) :   1.8839
B(  7-C , 21-H ) :   0.9301

MP2 TOTAL ENERGY:     -403.670408425 Eh
FINAL SINGLE POINT ENERGY      -403.670408425035

DIPOLE MOMENT
-------------
                                X             Y             Z
Electronic contribution:      3.24809      -3.50831       9.48730
Nuclear contribution   :     -2.64733       4.42147     -10.51058
                        -----------------------------------------
Total Dipole Moment    :      0.60076       0.91316      -1.02328
                        -----------------------------------------
Magnitude (a.u.)       :      1.49729
Magnitude (Debye)      :      3.80581

                             ****ORCA TERMINATED NORMALLY****
TOTAL RUN TIME: 0 days 0 hours 17 minutes 15 seconds 280 msec
