                         Program Version 3.0.3 - RELEASE   -
|  1> ! RI-MP2 RIJK def2-TZVP def2-TZVP/C def2-TZVP/JK TIGHTSCF
|  2> % maxcore 2000
|  3> % mp2 density relaxed end
|  4> *xyz 0 1
|  5>  C       -0.0198287381     1.5887632137     0.0088011595
|  6>  C       -0.0385188984     0.0802417605     0.2658529483
|  7>  C       -1.3626842912    -0.5831546270    -0.1424625107
|  8>  O       -1.6193849709    -0.4422918881    -1.5425093721
|  9>  C       -1.3717476546    -2.0575946239     0.1419082513
| 10>  C       -1.0161166799    -2.8104548505     1.2468641901
| 11>  C       -1.2915476099    -4.1424822062     0.8724050902
| 12>  N       -1.7763468724    -4.2232349406    -0.3643626680
| 13>  N       -1.8195354912    -2.9437616510    -0.7787204013
| 14>  H        0.9262472762     2.0303389650     0.3338599942
| 15>  H       -0.1307158645     1.8121087483    -1.0577452878
| 16>  H       -0.8260911832     2.0984550984     0.5496529571
| 17>  H        0.7723388637    -0.4106132086    -0.2832433686
| 18>  H        0.1307354919    -0.1191963443     1.3303200616
| 19>  H       -2.1788276228    -0.1055255862     0.4258833391
| 20>  H       -1.9037653042     0.4606481254    -1.7062534547
| 21>  H       -0.6238782063    -2.4521637301     2.1847598640
| 22>  H       -1.1537943427    -5.0430991635     1.4528952176
| 23>  H       -2.1281671415    -2.7108941414    -1.7075851299
| 24> *
| 25>
| 26>                          ****END OF INPUT****

CARTESIAN COORDINATES (ANGSTROEM)
---------------------------------
  C     -0.019829    1.588763    0.008801
  C     -0.038519    0.080242    0.265853
  C     -1.362684   -0.583155   -0.142463
  O     -1.619385   -0.442292   -1.542509
  C     -1.371748   -2.057595    0.141908
  C     -1.016117   -2.810455    1.246864
  C     -1.291548   -4.142482    0.872405
  N     -1.776347   -4.223235   -0.364363
  N     -1.819535   -2.943762   -0.778720
  H      0.926247    2.030339    0.333860
  H     -0.130716    1.812109   -1.057745
  H     -0.826091    2.098455    0.549653
  H      0.772339   -0.410613   -0.283243
  H      0.130735   -0.119196    1.330320
  H     -2.178828   -0.105526    0.425883
  H     -1.903765    0.460648   -1.706253
  H     -0.623878   -2.452164    2.184760
  H     -1.153794   -5.043099    1.452895
  H     -2.128167   -2.710894   -1.707585

 Total Charge           Charge          ....    0
 Multiplicity           Mult            ....    1
 Number of Electrons    NEL             ....   68
 Basis Dimension        Dim             ....  339

ORBITAL ENERGIES
----------------

  NO   OCC          E(Eh)            E(eV)
   0   2.0000     -20.577470      -559.9414
   1   2.0000     -15.623700      -425.1425
   2   2.0000     -15.573799      -423.7846
   3   2.0000     -11.308714      -307.7258
   4   2.0000     -11.272769      -306.7476
   5   2.0000     -11.243219      -305.9436
   6   2.0000     -11.237074      -305.7763
   7   2.0000     -11.231544      -305.6258
   8   2.0000     -11.211249      -305.0736
   9   2.0000      -1.388442       -37.7814
  10   2.0000      -1.359770       -37.0012
  11   2.0000      -1.101413       -29.9710
  12   2.0000      -1.071661       -29.1614
  13   2.0000      -1.037552       -28.2332
  14   2.0000      -0.942017       -25.6336
  15   2.0000      -0.837825       -22.7984
  16   2.0000      -0.806465       -21.9450
  17   2.0000      -0.784686       -21.3524
  18   2.0000      -0.721533       -19.6339
  19   2.0000      -0.704301       -19.1650
  20   2.0000      -0.646112       -17.5816
  21   2.0000      -0.612661       -16.6714
  22   2.0000      -0.600341       -16.3361
  23   2.0000      -0.593616       -16.1531
  24   2.0000      -0.589372       -16.0376
  25   2.0000      -0.561027       -15.2663
  26   2.0000      -0.551664       -15.0115
  27   2.0000      -0.530627       -14.4391
  28   2.0000      -0.511021       -13.9056
  29   2.0000      -0.495917       -13.4946
  30   2.0000      -0.463712       -12.6182
  31   2.0000      -0.446377       -12.1465
  32   2.0000      -0.355608        -9.6766
  33   2.0000      -0.330632        -8.9970
  34   0.0000       0.116032         3.1574
  35   0.0000       0.155158         4.2221
  36   0.0000       0.161035         4.3820
  37   0.0000       0.168718         4.5910
  38   0.0000       0.174273         4.7422

MULLIKEN ATOMIC CHARGES
-----------------------
   0 C :   -0.435670
   1 C :   -0.164093
   2 C :    0.003188
   3 O :   -0.494068
   4 C :    0.116372
   5 C :   -0.215420
   6 C :   -0.104198
   7 N :   -0.230764
   8 N :   -0.086357
   9 H :    0.144899
  10 H :    0.125980
  11 H :    0.128952
  12 H :    0.126327
  13 H :    0.107837
  14 H :    0.110433
  15 H :    0.328230
  16 H :    0.137834
  17 H :    0.130984
  18 H :    0.269535
Sum of atomic charges:   -0.0000000

LOEWDIN ATOMIC CHARGES
----------------------
   0 C :   -0.324264
   1 C :   -0.269818
   2 C :   -0.311126
   3 O :   -0.019097
   4 C :   -0.225794
   5 C :   -0.189146
   6 C :   -0.280310
   7 N :    0.018021
   8 N :    0.160197
   9 H :    0.126279
  10 H :    0.118509
  11 H :    0.121378
  12 H :    0.144755
  13 H :    0.143054
  14 H :    0.145446
  15 H :    0.175799
  16 H :    0.140426
  17 H :    0.131966
  18 H :    0.193725

  Mayer bond orders larger than 0.1
B(  0-C ,  1-C ) :   0.8948 B(  0-C ,  9-H ) :   0.9408 B(  0-C , 10-H ) :   0.9442
B(  0-C , 11-H ) :   0.9351 B(  1-C ,  2-C ) :   0.9450 B(  1-C , 12-H ) :   0.9233
B(  1-C , 13-H ) :   0.9184 B(  2-C ,  3-O ) :   0.9683 B(  2-C ,  4-C ) :   0.9116
B(  2-C , 14-H ) :   0.9347 B(  3-O , 15-H ) :   0.8413 B(  4-C ,  5-C ) :   1.3840
B(  4-C ,  7-N ) :   0.1107 B(  4-C ,  8-N ) :   1.2121 B(  5-C ,  6-C ) :   1.3214
B(  5-C , 16-H ) :   0.9246 B(  6-C ,  7-N ) :   1.5237 B(  6-C , 17-H ) :   0.9407
B(  7-N ,  8-N ) :   1.0610 B(  8-N , 18-H ) :   0.8593

MP2 TOTAL ENERGY:     -418.529079326 Eh
FINAL SINGLE POINT ENERGY      -418.529079326320

DIPOLE MOMENT
-------------
                                X             Y             Z
Electronic contribution:     -4.01495      -9.65596      -1.97060
Nuclear contribution   :      4.07119      11.23354       2.17545
                        -----------------------------------------
Total Dipole Moment    :      0.05623       1.57758       0.20485
                        -----------------------------------------
Magnitude (a.u.)       :      1.59182
Magnitude (Debye)      :      4.04609

                             ****ORCA TERMINATED NORMALLY****
TOTAL RUN TIME: 0 days 0 hours 16 minutes 49 seconds 727 msec
