                         Program Version 3.0.3 - RELEASE   -
|  1> ! RI-MP2 RIJK def2-TZVP def2-TZVP/C def2-TZVP/JK TIGHTSCF
|  2> % maxcore 2000
|  3> % mp2 density relaxed end
|  4> *xyz 0 1
|  5>  C        0.4630888301     1.4146443639     0.2191559061
|  6>  C       -0.2843618166     0.1304891566    -0.1654916908
|  7>  C        0.3413915060    -0.5264096897    -1.3710020911
|  8>  O        1.5597961045    -1.2552238095    -1.1841751389
|  9>  C        0.4051341721    -1.9899981748    -1.6148845636
| 10>  C       -0.1299715909    -3.0556729162    -0.6747452625
| 11>  C        0.7950195734    -4.2762704187    -0.5956155208
| 12>  C        0.4638578938    -2.4086530835    -3.0117632979
| 13>  N        0.4806418800    -2.7568190235    -4.1139193468
| 14>  H        1.5060941013     1.1952289978     0.4653699180
| 15>  H        0.4558595220     2.1392247113    -0.6018042091
| 16>  H       -0.0009093240     1.8881177873     1.0886657370
| 17>  H       -0.2908349350    -0.5599727161     0.6817615277
| 18>  H       -1.3302184998     0.3609630704    -0.4043290559
| 19>  H        0.3542627304     0.1004192907    -2.2655163265
| 20>  H       -0.2527368845    -2.6162811412     0.3174626004
| 21>  H       -1.1257999465    -3.3536544177    -1.0233602252
| 22>  H        0.9081773892    -4.7527720781    -1.5740401928
| 23>  H        1.7880402918    -3.9836147583    -0.2427879235
| 24>  H        0.3899291528    -5.0188423406     0.0969960364
| 25> *
| 26>
| 27>                          ****END OF INPUT****

CARTESIAN COORDINATES (ANGSTROEM)
---------------------------------
  C      0.463089    1.414644    0.219156
  C     -0.284362    0.130489   -0.165492
  C      0.341392   -0.526410   -1.371002
  O      1.559796   -1.255224   -1.184175
  C      0.405134   -1.989998   -1.614885
  C     -0.129972   -3.055673   -0.674745
  C      0.795020   -4.276270   -0.595616
  C      0.463858   -2.408653   -3.011763
  N      0.480642   -2.756819   -4.113919
  H      1.506094    1.195229    0.465370
  H      0.455860    2.139225   -0.601804
  H     -0.000909    1.888118    1.088666
  H     -0.290835   -0.559973    0.681762
  H     -1.330218    0.360963   -0.404329
  H      0.354263    0.100419   -2.265516
  H     -0.252737   -2.616281    0.317463
  H     -1.125800   -3.353654   -1.023360
  H      0.908177   -4.752772   -1.574040
  H      1.788040   -3.983615   -0.242788
  H      0.389929   -5.018842    0.096996

 Total Charge           Charge          ....    0
 Multiplicity           Mult            ....    1
 Number of Electrons    NEL             ....   68
 Basis Dimension        Dim             ....  345

ORBITAL ENERGIES
----------------

  NO   OCC          E(Eh)            E(eV)
   0   2.0000     -20.596134      -560.4493
   1   2.0000     -15.578854      -423.9222
   2   2.0000     -11.342864      -308.6550
   3   2.0000     -11.316704      -307.9432
   4   2.0000     -11.277624      -306.8797
   5   2.0000     -11.255157      -306.2684
   6   2.0000     -11.250183      -306.1331
   7   2.0000     -11.232466      -305.6509
   8   2.0000     -11.229219      -305.5626
   9   2.0000      -1.443372       -39.2762
  10   2.0000      -1.223354       -33.2891
  11   2.0000      -1.081971       -29.4419
  12   2.0000      -1.072569       -29.1861
  13   2.0000      -0.971315       -26.4308
  14   2.0000      -0.919406       -25.0183
  15   2.0000      -0.867396       -23.6030
  16   2.0000      -0.816806       -22.2264
  17   2.0000      -0.744251       -20.2521
  18   2.0000      -0.674154       -18.3447
  19   2.0000      -0.655719       -17.8430
  20   2.0000      -0.625834       -17.0298
  21   2.0000      -0.598123       -16.2758
  22   2.0000      -0.587438       -15.9850
  23   2.0000      -0.575139       -15.6503
  24   2.0000      -0.561919       -15.2906
  25   2.0000      -0.542298       -14.7567
  26   2.0000      -0.535637       -14.5754
  27   2.0000      -0.520716       -14.1694
  28   2.0000      -0.510593       -13.8939
  29   2.0000      -0.501923       -13.6580
  30   2.0000      -0.499997       -13.6056
  31   2.0000      -0.471145       -12.8205
  32   2.0000      -0.466912       -12.7053
  33   2.0000      -0.427936       -11.6447
  34   0.0000       0.128756         3.5036
  35   0.0000       0.140318         3.8182
  36   0.0000       0.151040         4.1100
  37   0.0000       0.153635         4.1806
  38   0.0000       0.168456         4.5839

MULLIKEN ATOMIC CHARGES
-----------------------
   0 C :   -0.402004
   1 C :   -0.186307
   2 C :    0.013837
   3 O :   -0.323413
   4 C :    0.293682
   5 C :   -0.180253
   6 C :   -0.428343
   7 C :   -0.213686
   8 N :   -0.048256
   9 H :    0.145823
  10 H :    0.129915
  11 H :    0.140339
  12 H :    0.116467
  13 H :    0.121445
  14 H :    0.136599
  15 H :    0.113916
  16 H :    0.130714
  17 H :    0.151260
  18 H :    0.147846
  19 H :    0.140419
Sum of atomic charges:    0.0000000

LOEWDIN ATOMIC CHARGES
----------------------
   0 C :   -0.307590
   1 C :   -0.271683
   2 C :   -0.225603
   3 O :    0.208564
   4 C :   -0.296863
   5 C :   -0.233662
   6 C :   -0.301448
   7 C :   -0.141779
   8 N :    0.076802
   9 H :    0.128021
  10 H :    0.123588
  11 H :    0.123943
  12 H :    0.140941
  13 H :    0.147032
  14 H :    0.149857
  15 H :    0.144413
  16 H :    0.151734
  17 H :    0.129602
  18 H :    0.129279
  19 H :    0.124852

  Mayer bond orders larger than 0.1
B(  0-C ,  1-C ) :   0.9215 B(  0-C ,  9-H ) :   0.9362 B(  0-C , 10-H ) :   0.9366
B(  0-C , 11-H ) :   0.9389 B(  1-C ,  2-C ) :   0.9002 B(  1-C , 12-H ) :   0.9377
B(  1-C , 13-H ) :   0.9199 B(  2-C ,  3-O ) :   0.8646 B(  2-C ,  4-C ) :   0.9392
B(  2-C , 14-H ) :   0.9026 B(  3-O ,  4-C ) :   0.8839 B(  4-C ,  5-C ) :   0.8999
B(  4-C ,  7-C ) :   0.8848 B(  5-C ,  6-C ) :   0.9259 B(  5-C , 15-H ) :   0.9276
B(  5-C , 16-H ) :   0.9211 B(  6-C , 17-H ) :   0.9322 B(  6-C , 18-H ) :   0.9356
B(  6-C , 19-H ) :   0.9374 B(  7-C ,  8-N ) :   2.8546

MP2 TOTAL ENERGY:     -402.458703678 Eh
FINAL SINGLE POINT ENERGY      -402.458703677641

DIPOLE MOMENT
-------------
                                X             Y             Z
Electronic contribution:      1.83172      -2.44938      -9.05516
Nuclear contribution   :     -2.57675       2.96099      10.48399
                        -----------------------------------------
Total Dipole Moment    :     -0.74503       0.51161       1.42883
                        -----------------------------------------
Magnitude (a.u.)       :      1.69068
Magnitude (Debye)      :      4.29736

                             ****ORCA TERMINATED NORMALLY****
TOTAL RUN TIME: 0 days 0 hours 29 minutes 20 seconds 463 msec
