                         Program Version 3.0.3 - RELEASE   -
|  1> ! RI-MP2 RIJK def2-TZVP def2-TZVP/C def2-TZVP/JK TIGHTSCF
|  2> % maxcore 2000
|  3> % mp2 density relaxed end
|  4> *xyz 0 1
|  5>  C        0.6128824273     1.5601508566     0.1790206903
|  6>  C        0.2023449500     0.0983543666     0.0734637006
|  7>  N        0.6012517616    -0.7230386531    -1.1379829573
|  8>  C        1.8856200694    -0.3256305410    -1.8017155960
|  9>  C        2.7302013054    -1.2156960173    -0.8650053335
| 10>  O        3.5409489830    -0.4310954209    -0.0173026586
| 11>  C        1.3702105783    -1.6954255536    -0.2592233003
| 12>  C        0.9364612551    -0.9081279708     0.9797234567
| 13>  O        1.1102701286    -1.0270057225     2.1567224684
| 14>  H        1.6985103218     1.6743559186     0.2195051557
| 15>  H        0.2235489862     2.1339459496    -0.6683958912
| 16>  H        0.1945602775     1.9843924814     1.0962528797
| 17>  H       -0.8849727948     0.0120030661     0.1978850689
| 18>  H        1.8880741996    -0.6560722214    -2.8440588317
| 19>  H        2.1394146314     0.7358137777    -1.7674410581
| 20>  H        3.3095830097    -2.0083120801    -1.3554920598
| 21>  H        3.8373085697    -0.9752118308     0.7212604538
| 22>  H        1.1324066602    -2.7609172250    -0.3127058975
| 23> *
| 24>
| 25>                          ****END OF INPUT****

CARTESIAN COORDINATES (ANGSTROEM)
---------------------------------
  C      0.612882    1.560151    0.179021
  C      0.202345    0.098354    0.073464
  N      0.601252   -0.723039   -1.137983
  C      1.885620   -0.325631   -1.801716
  C      2.730201   -1.215696   -0.865005
  O      3.540949   -0.431095   -0.017303
  C      1.370211   -1.695426   -0.259223
  C      0.936461   -0.908128    0.979723
  O      1.110270   -1.027006    2.156722
  H      1.698510    1.674356    0.219505
  H      0.223549    2.133946   -0.668396
  H      0.194560    1.984392    1.096253
  H     -0.884973    0.012003    0.197885
  H      1.888074   -0.656072   -2.844059
  H      2.139415    0.735814   -1.767441
  H      3.309583   -2.008312   -1.355492
  H      3.837309   -0.975212    0.721260
  H      1.132407   -2.760917   -0.312706

 Total Charge           Charge          ....    0
 Multiplicity           Mult            ....    1
 Number of Electrons    NEL             ....   68
 Basis Dimension        Dim             ....  333

ORBITAL ENERGIES
----------------

  NO   OCC          E(Eh)            E(eV)
   0   2.0000     -20.576879      -559.9253
   1   2.0000     -20.562429      -559.5322
   2   2.0000     -15.561379      -423.4467
   3   2.0000     -11.337828      -308.5180
   4   2.0000     -11.305778      -307.6459
   5   2.0000     -11.274241      -306.7877
   6   2.0000     -11.273706      -306.7731
   7   2.0000     -11.262591      -306.4707
   8   2.0000     -11.229914      -305.5815
   9   2.0000      -1.406657       -38.2771
  10   2.0000      -1.385385       -37.6982
  11   2.0000      -1.270449       -34.5707
  12   2.0000      -1.056640       -28.7526
  13   2.0000      -0.983661       -26.7668
  14   2.0000      -0.955334       -25.9960
  15   2.0000      -0.852842       -23.2070
  16   2.0000      -0.806691       -21.9512
  17   2.0000      -0.739718       -20.1287
  18   2.0000      -0.700390       -19.0586
  19   2.0000      -0.685106       -18.6427
  20   2.0000      -0.662733       -18.0339
  21   2.0000      -0.655706       -17.8427
  22   2.0000      -0.617788       -16.8109
  23   2.0000      -0.595858       -16.2141
  24   2.0000      -0.580182       -15.7876
  25   2.0000      -0.555010       -15.1026
  26   2.0000      -0.550315       -14.9748
  27   2.0000      -0.535177       -14.5629
  28   2.0000      -0.509769       -13.8715
  29   2.0000      -0.494527       -13.4568
  30   2.0000      -0.458122       -12.4661
  31   2.0000      -0.457138       -12.4394
  32   2.0000      -0.403129       -10.9697
  33   2.0000      -0.378409       -10.2970
  34   0.0000       0.114542         3.1169
  35   0.0000       0.140422         3.8211
  36   0.0000       0.153721         4.1830
  37   0.0000       0.162913         4.4331
  38   0.0000       0.169707         4.6180

MULLIKEN ATOMIC CHARGES
-----------------------
   0 C :   -0.459166
   1 C :    0.040087
   2 N :   -0.190089
   3 C :   -0.146559
   4 C :    0.001109
   5 O :   -0.457276
   6 C :   -0.026685
   7 C :    0.077389
   8 O :   -0.249037
   9 H :    0.161042
  10 H :    0.147254
  11 H :    0.147760
  12 H :    0.126822
  13 H :    0.130150
  14 H :    0.127470
  15 H :    0.107297
  16 H :    0.327131
  17 H :    0.135302
Sum of atomic charges:   -0.0000000

LOEWDIN ATOMIC CHARGES
----------------------
   0 C :   -0.293594
   1 C :   -0.242664
   2 N :    0.108235
   3 C :   -0.228717
   4 C :   -0.309293
   5 O :   -0.006790
   6 C :   -0.173855
   7 C :   -0.287223
   8 O :    0.168889
   9 H :    0.129716
  10 H :    0.130616
  11 H :    0.135993
  12 H :    0.156561
  13 H :    0.130732
  14 H :    0.131177
  15 H :    0.127454
  16 H :    0.182912
  17 H :    0.139852

  Mayer bond orders larger than 0.1
B(  0-C ,  1-C ) :   0.8917 B(  0-C ,  9-H ) :   0.9289 B(  0-C , 10-H ) :   0.9356
B(  0-C , 11-H ) :   0.9255 B(  1-C ,  2-N ) :   0.9461 B(  1-C ,  6-C ) :  -0.1041
B(  1-C ,  7-C ) :   0.8943 B(  1-C , 12-H ) :   0.8883 B(  2-N ,  3-C ) :   0.8961
B(  2-N ,  6-C ) :   0.9742 B(  3-C ,  4-C ) :   0.8958 B(  3-C , 13-H ) :   0.9231
B(  3-C , 14-H ) :   0.9192 B(  4-C ,  5-O ) :   1.0344 B(  4-C ,  6-C ) :   0.9391
B(  4-C , 15-H ) :   0.9548 B(  5-O , 16-H ) :   0.8362 B(  6-C ,  7-C ) :   0.8970
B(  6-C , 17-H ) :   0.8733 B(  7-C ,  8-O ) :   2.0520

MP2 TOTAL ENERGY:     -438.326624616 Eh
FINAL SINGLE POINT ENERGY      -438.326624615523

DIPOLE MOMENT
-------------
                                X             Y             Z
Electronic contribution:      0.15349      -4.45837       3.43779
Nuclear contribution   :      0.14178       4.31893      -3.94260
                        -----------------------------------------
Total Dipole Moment    :      0.29527      -0.13945      -0.50481
                        -----------------------------------------
Magnitude (a.u.)       :      0.60122
Magnitude (Debye)      :      1.52817

                             ****ORCA TERMINATED NORMALLY****
TOTAL RUN TIME: 0 days 0 hours 21 minutes 19 seconds 836 msec
