                         Program Version 3.0.3 - RELEASE   -
|  1> ! RI-MP2 RIJK def2-TZVP def2-TZVP/C def2-TZVP/JK TIGHTSCF
|  2> % maxcore 2000
|  3> % mp2 density relaxed end
|  4> *xyz 0 1
|  5>  O        0.0205831850    -0.0560929933     0.0805940867
|  6>  C        0.0004652689     1.1473747365     0.0379660302
|  7>  N       -1.1696361263     1.8713688624     0.0620531640
|  8>  C       -1.3243826714     3.3181205923    -0.0482556330
|  9>  C       -0.0017006996     3.9608670937     0.3999907252
| 10>  C        1.1412726439     3.2493969086    -0.3024267308
| 11>  O        1.1605035879     1.8524845874     0.0171027808
| 12>  C       -1.7117586025     3.7363205876    -1.4031838683
| 13>  C       -2.0368702134     4.0758882658    -2.5092621999
| 14>  H       -1.9899572845     1.2937628358    -0.0321697557
| 15>  H       -2.1193077013     3.6269963558     0.6420874923
| 16>  H       -0.0006649062     5.0258128310     0.1572306059
| 17>  H        0.1017113418     3.8480246014     1.4836127074
| 18>  H        1.0586721009     3.3711770449    -1.3898989184
| 19>  H        2.1134775315     3.6324001191     0.0144091428
| 20>  H       -2.3263991146     4.3697730210    -3.4883571693
| 21> *
| 22>
| 23>                          ****END OF INPUT****

CARTESIAN COORDINATES (ANGSTROEM)
---------------------------------
  O      0.020583   -0.056093    0.080594
  C      0.000465    1.147375    0.037966
  N     -1.169636    1.871369    0.062053
  C     -1.324383    3.318121   -0.048256
  C     -0.001701    3.960867    0.399991
  C      1.141273    3.249397   -0.302427
  O      1.160504    1.852485    0.017103
  C     -1.711759    3.736321   -1.403184
  C     -2.036870    4.075888   -2.509262
  H     -1.989957    1.293763   -0.032170
  H     -2.119308    3.626996    0.642087
  H     -0.000665    5.025813    0.157231
  H      0.101711    3.848025    1.483613
  H      1.058672    3.371177   -1.389899
  H      2.113478    3.632400    0.014409
  H     -2.326399    4.369773   -3.488357

 Total Charge           Charge          ....    0
 Multiplicity           Mult            ....    1
 Number of Electrons    NEL             ....   66
 Basis Dimension        Dim             ....  321

ORBITAL ENERGIES
----------------

  NO   OCC          E(Eh)            E(eV)
   0   2.0000     -20.599707      -560.5465
   1   2.0000     -20.514945      -558.2400
   2   2.0000     -15.597284      -424.4237
   3   2.0000     -11.402076      -310.2662
   4   2.0000     -11.325573      -308.1845
   5   2.0000     -11.306596      -307.6681
   6   2.0000     -11.261523      -306.4416
   7   2.0000     -11.253274      -306.2171
   8   2.0000     -11.247040      -306.0475
   9   2.0000      -1.459892       -39.7257
  10   2.0000      -1.355558       -36.8866
  11   2.0000      -1.253706       -34.1151
  12   2.0000      -1.101051       -29.9611
  13   2.0000      -1.043348       -28.3909
  14   2.0000      -0.963675       -26.2229
  15   2.0000      -0.900377       -24.5005
  16   2.0000      -0.795023       -21.6337
  17   2.0000      -0.752482       -20.4761
  18   2.0000      -0.729010       -19.8374
  19   2.0000      -0.712737       -19.3945
  20   2.0000      -0.687276       -18.7017
  21   2.0000      -0.663782       -18.0624
  22   2.0000      -0.628938       -17.1143
  23   2.0000      -0.618466       -16.8293
  24   2.0000      -0.614692       -16.7266
  25   2.0000      -0.550240       -14.9728
  26   2.0000      -0.539360       -14.6767
  27   2.0000      -0.506284       -13.7767
  28   2.0000      -0.469760       -12.7828
  29   2.0000      -0.450084       -12.2474
  30   2.0000      -0.426328       -11.6010
  31   2.0000      -0.411306       -11.1922
  32   2.0000      -0.402863       -10.9625
  33   0.0000       0.116593         3.1727
  34   0.0000       0.144573         3.9340
  35   0.0000       0.148711         4.0466
  36   0.0000       0.156253         4.2519
  37   0.0000       0.165778         4.5110

MULLIKEN ATOMIC CHARGES
-----------------------
   0 O :   -0.342397
   1 C :    0.341675
   2 N :   -0.354642
   3 C :    0.029191
   4 C :   -0.253980
   5 C :   -0.091037
   6 O :   -0.235478
   7 C :   -0.107326
   8 C :   -0.147268
   9 H :    0.254525
  10 H :    0.147342
  11 H :    0.144391
  12 H :    0.140926
  13 H :    0.131679
  14 H :    0.143618
  15 H :    0.198782
Sum of atomic charges:    0.0000000

LOEWDIN ATOMIC CHARGES
----------------------
   0 O :    0.089487
   1 C :   -0.588658
   2 N :    0.130460
   3 C :   -0.275290
   4 C :   -0.227478
   5 C :   -0.277595
   6 O :    0.250119
   7 C :   -0.092407
   8 C :   -0.081596
   9 H :    0.199165
  10 H :    0.168531
  11 H :    0.154025
  12 H :    0.149591
  13 H :    0.135540
  14 H :    0.135722
  15 H :    0.130384

  Mayer bond orders larger than 0.1
B(  0-O ,  1-C ) :   1.9958 B(  1-C ,  2-N ) :   1.1320 B(  1-C ,  6-O ) :   1.0963
B(  2-N ,  3-C ) :   0.8283 B(  2-N ,  9-H ) :   0.8658 B(  3-C ,  4-C ) :   0.8656
B(  3-C ,  7-C ) :   1.1013 B(  3-C , 10-H ) :   0.9432 B(  4-C ,  5-C ) :   0.9533
B(  4-C , 11-H ) :   0.9221 B(  4-C , 12-H ) :   0.9236 B(  5-C ,  6-O ) :   0.8625
B(  5-C , 13-H ) :   0.9271 B(  5-C , 14-H ) :   0.9313 B(  7-C ,  8-C ) :   2.6075
B(  8-C , 15-H ) :   0.8937

MP2 TOTAL ENERGY:     -437.170847100 Eh
FINAL SINGLE POINT ENERGY      -437.170847100492

DIPOLE MOMENT
-------------
                                X             Y             Z
Electronic contribution:     -0.25101      -5.08532      -0.14842
Nuclear contribution   :     -0.42777       7.05997      -0.01486
                        -----------------------------------------
Total Dipole Moment    :     -0.67878       1.97465      -0.16328
                        -----------------------------------------
Magnitude (a.u.)       :      2.09443
Magnitude (Debye)      :      5.32361

                             ****ORCA TERMINATED NORMALLY****
TOTAL RUN TIME: 0 days 0 hours 15 minutes 45 seconds 250 msec
