                         Program Version 3.0.3 - RELEASE   -
|  1> ! RI-MP2 RIJK def2-TZVP def2-TZVP/C def2-TZVP/JK TIGHTSCF
|  2> % maxcore 2000
|  3> % mp2 density relaxed end
|  4> *xyz 0 1
|  5>  C       -0.0363143939     1.5731120440    -0.0222412877
|  6>  C       -0.0765101547     0.0492096350    -0.0537039410
|  7>  C       -1.4902006807    -0.4946877834     0.1682474930
|  8>  O       -1.9934900600    -0.1633346469     1.4519873709
|  9>  C        0.7030735596    -0.6303714355    -1.2235280813
| 10>  C        1.6863249342    -1.1281742442    -0.1392279797
| 11>  O        2.7320882961    -1.7165305516    -0.1224201166
| 12>  N        0.8998226612    -0.5964547741     0.8643883181
| 13>  H        0.9889692507     1.9419632892    -0.1179715776
| 14>  H       -0.6308553573     1.9900048935    -0.8416793093
| 15>  H       -0.4599196070     1.9406427405     0.9168342498
| 16>  H       -2.1783989966    -0.0475293637    -0.5574692797
| 17>  H       -1.4896700144    -1.5827666003     0.0097451234
| 18>  H       -1.5078420733    -0.6950675702     2.0916413027
| 19>  H        0.1705291984    -1.4201819239    -1.7581623381
| 20>  H        1.1551016252     0.0570364621    -1.9406475560
| 21>  H        1.1789651824    -0.3301433106     1.7991799493
| 22> *
| 23>
| 24>                          ****END OF INPUT****

CARTESIAN COORDINATES (ANGSTROEM)
---------------------------------
  C     -0.036314    1.573112   -0.022241
  C     -0.076510    0.049210   -0.053704
  C     -1.490201   -0.494688    0.168247
  O     -1.993490   -0.163335    1.451987
  C      0.703074   -0.630371   -1.223528
  C      1.686325   -1.128174   -0.139228
  O      2.732088   -1.716531   -0.122420
  N      0.899823   -0.596455    0.864388
  H      0.988969    1.941963   -0.117972
  H     -0.630855    1.990005   -0.841679
  H     -0.459920    1.940643    0.916834
  H     -2.178399   -0.047529   -0.557469
  H     -1.489670   -1.582767    0.009745
  H     -1.507842   -0.695068    2.091641
  H      0.170529   -1.420182   -1.758162
  H      1.155102    0.057036   -1.940648
  H      1.178965   -0.330143    1.799180

 Total Charge           Charge          ....    0
 Multiplicity           Mult            ....    1
 Number of Electrons    NEL             ....   62
 Basis Dimension        Dim             ....  302

ORBITAL ENERGIES
----------------

  NO   OCC          E(Eh)            E(eV)
   0   2.0000     -20.570796      -559.7598
   1   2.0000     -20.531739      -558.6970
   2   2.0000     -15.586169      -424.1212
   3   2.0000     -11.356549      -309.0274
   4   2.0000     -11.295042      -307.3537
   5   2.0000     -11.289568      -307.2048
   6   2.0000     -11.252739      -306.2026
   7   2.0000     -11.232389      -305.6488
   8   2.0000      -1.393745       -37.9257
   9   2.0000      -1.376386       -37.4534
  10   2.0000      -1.272527       -34.6272
  11   2.0000      -1.052084       -28.6287
  12   2.0000      -0.988947       -26.9106
  13   2.0000      -0.943342       -25.6697
  14   2.0000      -0.811198       -22.0738
  15   2.0000      -0.787100       -21.4181
  16   2.0000      -0.709300       -19.3010
  17   2.0000      -0.676620       -18.4118
  18   2.0000      -0.665974       -18.1221
  19   2.0000      -0.655046       -17.8247
  20   2.0000      -0.613291       -16.6885
  21   2.0000      -0.597833       -16.2679
  22   2.0000      -0.579847       -15.7784
  23   2.0000      -0.547740       -14.9048
  24   2.0000      -0.545527       -14.8445
  25   2.0000      -0.538665       -14.6578
  26   2.0000      -0.513408       -13.9705
  27   2.0000      -0.488654       -13.2970
  28   2.0000      -0.465175       -12.6580
  29   2.0000      -0.421839       -11.4788
  30   2.0000      -0.402595       -10.9552
  31   0.0000       0.115633         3.1465
  32   0.0000       0.143500         3.9048
  33   0.0000       0.152526         4.1504
  34   0.0000       0.171161         4.6575
  35   0.0000       0.181085         4.9276

MULLIKEN ATOMIC CHARGES
-----------------------
   0 C :   -0.444661
   1 C :    0.184522
   2 C :   -0.025156
   3 O :   -0.475369
   4 C :   -0.251777
   5 C :    0.201301
   6 O :   -0.301248
   7 N :   -0.376743
   8 H :    0.142442
   9 H :    0.133600
  10 H :    0.150375
  11 H :    0.116067
  12 H :    0.113950
  13 H :    0.316701
  14 H :    0.136150
  15 H :    0.140182
  16 H :    0.239662
Sum of atomic charges:    0.0000000

LOEWDIN ATOMIC CHARGES
----------------------
   0 C :   -0.272019
   1 C :   -0.316758
   2 C :   -0.310558
   3 O :   -0.039754
   4 C :   -0.163773
   5 C :   -0.434884
   6 O :    0.109229
   7 N :    0.140406
   8 H :    0.128978
   9 H :    0.131583
  10 H :    0.132734
  11 H :    0.135240
  12 H :    0.124674
  13 H :    0.174053
  14 H :    0.143243
  15 H :    0.145851
  16 H :    0.171755

  Mayer bond orders larger than 0.1
B(  0-C ,  1-C ) :   0.9427 B(  0-C ,  8-H ) :   0.9315 B(  0-C ,  9-H ) :   0.9326
B(  0-C , 10-H ) :   0.9293 B(  1-C ,  2-C ) :   0.9081 B(  1-C ,  4-C ) :   0.8761
B(  1-C ,  7-N ) :   0.8664 B(  2-C ,  3-O ) :   0.9128 B(  2-C , 11-H ) :   0.9266
B(  2-C , 12-H ) :   0.9205 B(  3-O , 13-H ) :   0.8427 B(  4-C ,  5-C ) :   0.9050
B(  4-C , 14-H ) :   0.8992 B(  4-C , 15-H ) :   0.9016 B(  5-C ,  6-O ) :   2.0407
B(  5-C ,  7-N ) :   1.1427 B(  7-N , 16-H ) :   0.8535

MP2 TOTAL ENERGY:     -400.376833262 Eh
FINAL SINGLE POINT ENERGY      -400.376833261661

DIPOLE MOMENT
-------------
                                X             Y             Z
Electronic contribution:      4.16497      -4.36022       1.68461
Nuclear contribution   :     -4.87392       4.95883      -1.65428
                        -----------------------------------------
Total Dipole Moment    :     -0.70895       0.59861       0.03033
                        -----------------------------------------
Magnitude (a.u.)       :      0.92837
Magnitude (Debye)      :      2.35973

                             ****ORCA TERMINATED NORMALLY****
TOTAL RUN TIME: 0 days 0 hours 11 minutes 48 seconds 560 msec
