                         Program Version 3.0.3 - RELEASE   -
|  1> ! RI-MP2 RIJK def2-TZVP def2-TZVP/C def2-TZVP/JK TIGHTSCF
|  2> % maxcore 2000
|  3> % mp2 density relaxed end
|  4> *xyz 0 1
|  5>  C       -0.3083274857     1.6240914083    -0.1587732295
|  6>  C        0.0030842167     0.1486787235    -0.0072650207
|  7>  C        0.7026525161    -0.5974443859    -1.2196000862
|  8>  C        1.8693365151    -0.8148406727    -0.2654310842
|  9>  C        3.0619197186    -1.2088619011     0.3054013936
| 10>  O        4.0926600099    -1.8980289977    -0.2200166577
| 11>  N        3.0656683308    -0.7675665297     1.5925331440
| 12>  N        1.9408024937    -0.1218313162     1.8767886377
| 13>  N        1.2541146264    -0.1669892761     0.7400875627
| 14>  H        0.5489936395     2.1645676314    -0.5702340953
| 15>  H       -1.1612401132     1.7564910076    -0.8317379355
| 16>  H       -0.5646379272     2.0670348007     0.8077806415
| 17>  H       -0.8467996290    -0.4027184321     0.4037268077
| 18>  H        0.1880855262    -1.4995459235    -1.5569089121
| 19>  H        0.9055139047     0.0482607144    -2.0772631142
| 20>  H        4.7493536675    -1.9849729508     0.4830460681
| 21> *
| 22>
| 23>                          ****END OF INPUT****

CARTESIAN COORDINATES (ANGSTROEM)
---------------------------------
  C     -0.308327    1.624091   -0.158773
  C      0.003084    0.148679   -0.007265
  C      0.702653   -0.597444   -1.219600
  C      1.869337   -0.814841   -0.265431
  C      3.061920   -1.208862    0.305401
  O      4.092660   -1.898029   -0.220017
  N      3.065668   -0.767567    1.592533
  N      1.940802   -0.121831    1.876789
  N      1.254115   -0.166989    0.740088
  H      0.548994    2.164568   -0.570234
  H     -1.161240    1.756491   -0.831738
  H     -0.564638    2.067035    0.807781
  H     -0.846800   -0.402718    0.403727
  H      0.188086   -1.499546   -1.556909
  H      0.905514    0.048261   -2.077263
  H      4.749354   -1.984973    0.483046

 Total Charge           Charge          ....    0
 Multiplicity           Mult            ....    1
 Number of Electrons    NEL             ....   66
 Basis Dimension        Dim             ....  321

ORBITAL ENERGIES
----------------

  NO   OCC          E(Eh)            E(eV)
   0   2.0000     -20.590596      -560.2986
   1   2.0000     -15.645599      -425.7384
   2   2.0000     -15.633313      -425.4041
   3   2.0000     -15.585248      -424.0962
   4   2.0000     -11.317522      -307.9654
   5   2.0000     -11.317036      -307.9522
   6   2.0000     -11.276915      -306.8605
   7   2.0000     -11.270600      -306.6886
   8   2.0000     -11.245366      -306.0020
   9   2.0000      -1.444795       -39.3149
  10   2.0000      -1.403857       -38.2009
  11   2.0000      -1.242291       -33.8045
  12   2.0000      -1.087959       -29.6049
  13   2.0000      -1.047930       -28.5156
  14   2.0000      -0.965394       -26.2697
  15   2.0000      -0.895147       -24.3582
  16   2.0000      -0.825514       -22.4634
  17   2.0000      -0.777782       -21.1645
  18   2.0000      -0.740946       -20.1622
  19   2.0000      -0.686799       -18.6888
  20   2.0000      -0.643295       -17.5050
  21   2.0000      -0.622262       -16.9326
  22   2.0000      -0.620566       -16.8864
  23   2.0000      -0.588164       -16.0048
  24   2.0000      -0.576647       -15.6914
  25   2.0000      -0.565926       -15.3996
  26   2.0000      -0.550051       -14.9676
  27   2.0000      -0.535516       -14.5721
  28   2.0000      -0.513910       -13.9842
  29   2.0000      -0.487476       -13.2649
  30   2.0000      -0.431313       -11.7366
  31   2.0000      -0.391479       -10.6527
  32   2.0000      -0.325498        -8.8572
  33   0.0000       0.120986         3.2922
  34   0.0000       0.144227         3.9246
  35   0.0000       0.153272         4.1707
  36   0.0000       0.160903         4.3784
  37   0.0000       0.167020         4.5449

MULLIKEN ATOMIC CHARGES
-----------------------
   0 C :   -0.403179
   1 C :    0.000454
   2 C :   -0.192804
   3 C :   -0.007199
   4 C :    0.108575
   5 O :   -0.436952
   6 N :   -0.156635
   7 N :   -0.237693
   8 N :    0.124099
   9 H :    0.142577
  10 H :    0.140555
  11 H :    0.155667
  12 H :    0.131578
  13 H :    0.143905
  14 H :    0.141558
  15 H :    0.345494
Sum of atomic charges:   -0.0000000

LOEWDIN ATOMIC CHARGES
----------------------
   0 C :   -0.286270
   1 C :   -0.202358
   2 C :   -0.171799
   3 C :   -0.193030
   4 C :   -0.410556
   5 O :    0.069923
   6 N :   -0.002287
   7 N :   -0.057969
   8 N :    0.220816
   9 H :    0.132488
  10 H :    0.133133
  11 H :    0.135183
  12 H :    0.149576
  13 H :    0.139825
  14 H :    0.141009
  15 H :    0.202316

  Mayer bond orders larger than 0.1
B(  0-C ,  1-C ) :   0.9248 B(  0-C ,  9-H ) :   0.9308 B(  0-C , 10-H ) :   0.9296
B(  0-C , 11-H ) :   0.9316 B(  1-C ,  2-C ) :   0.9192 B(  1-C ,  8-N ) :   0.8041
B(  1-C , 12-H ) :   0.9176 B(  2-C ,  3-C ) :   0.9031 B(  2-C , 13-H ) :   0.9099
B(  2-C , 14-H ) :   0.9149 B(  3-C ,  4-C ) :   1.3710 B(  3-C ,  8-N ) :   1.1537
B(  4-C ,  5-O ) :   1.1397 B(  4-C ,  6-N ) :   1.4396 B(  5-O , 15-H ) :   0.8150
B(  6-N ,  7-N ) :   1.1880 B(  7-N ,  8-N ) :   1.0574

MP2 TOTAL ENERGY:     -433.315234875 Eh
FINAL SINGLE POINT ENERGY      -433.315234875465

DIPOLE MOMENT
-------------
                                X             Y             Z
Electronic contribution:      6.82461      -4.58029       3.77990
Nuclear contribution   :     -7.97707       4.78707      -5.00872
                        -----------------------------------------
Total Dipole Moment    :     -1.15246       0.20678      -1.22882
                        -----------------------------------------
Magnitude (a.u.)       :      1.69733
Magnitude (Debye)      :      4.31427

                             ****ORCA TERMINATED NORMALLY****
TOTAL RUN TIME: 0 days 0 hours 15 minutes 25 seconds 590 msec
