                         Program Version 3.0.3 - RELEASE   -
|  1> ! RI-MP2 RIJK def2-TZVP def2-TZVP/C def2-TZVP/JK TIGHTSCF
|  2> % maxcore 2000
|  3> % mp2 density relaxed end
|  4> *xyz 0 1
|  5>  C        0.0141463685     1.5605814292    -0.1684235588
|  6>  C        0.0066010935     0.0580807105    -0.0002314200
|  7>  C        1.2843694959    -0.7601046940    -0.1334654634
|  8>  C        0.6209162586    -0.5997547432     1.1972366636
|  9>  C        1.2104685784     0.0961825403     2.4300511180
| 10>  N        0.7925261149    -0.7474452062     3.5649894626
| 11>  C        0.1233245123    -1.6953797620     3.0563901100
| 12>  O       -0.0641840418    -1.7535223208     1.7168679197
| 13>  H        0.9346612098     2.0051326115     0.2242171991
| 14>  H       -0.0556717439     1.8339276386    -1.2265420198
| 15>  H       -0.8287429861     2.0266337479     0.3535533957
| 16>  H       -0.8860661951    -0.4415411328    -0.3674242699
| 17>  H        1.2200872753    -1.7302741357    -0.6134554433
| 18>  H        2.2199856224    -0.2312985627    -0.2935440350
| 19>  H        2.3040577711     0.1593702989     2.3970108119
| 20>  H        0.8284869458     1.1146182220     2.5651828012
| 21>  H       -0.3394520896    -2.5063858116     3.6076274182
| 22> *
| 23>
| 24>                          ****END OF INPUT****

CARTESIAN COORDINATES (ANGSTROEM)
---------------------------------
  C      0.014146    1.560581   -0.168424
  C      0.006601    0.058081   -0.000231
  C      1.284369   -0.760105   -0.133465
  C      0.620916   -0.599755    1.197237
  C      1.210469    0.096183    2.430051
  N      0.792526   -0.747445    3.564989
  C      0.123325   -1.695380    3.056390
  O     -0.064184   -1.753522    1.716868
  H      0.934661    2.005133    0.224217
  H     -0.055672    1.833928   -1.226542
  H     -0.828743    2.026634    0.353553
  H     -0.886066   -0.441541   -0.367424
  H      1.220087   -1.730274   -0.613455
  H      2.219986   -0.231299   -0.293544
  H      2.304058    0.159370    2.397011
  H      0.828487    1.114618    2.565183
  H     -0.339452   -2.506386    3.607627

 Total Charge           Charge          ....    0
 Multiplicity           Mult            ....    1
 Number of Electrons    NEL             ....   60
 Basis Dimension        Dim             ....  302

ORBITAL ENERGIES
----------------

  NO   OCC          E(Eh)            E(eV)
   0   2.0000     -20.596415      -560.4570
   1   2.0000     -15.547787      -423.0768
   2   2.0000     -11.330022      -308.3056
   3   2.0000     -11.298575      -307.4498
   4   2.0000     -11.262287      -306.4624
   5   2.0000     -11.241013      -305.8835
   6   2.0000     -11.231998      -305.6382
   7   2.0000     -11.228051      -305.5308
   8   2.0000      -1.441347       -39.2210
   9   2.0000      -1.212383       -32.9906
  10   2.0000      -1.158334       -31.5199
  11   2.0000      -0.988282       -26.8925
  12   2.0000      -0.954496       -25.9731
  13   2.0000      -0.835012       -22.7218
  14   2.0000      -0.802839       -21.8464
  15   2.0000      -0.768578       -20.9141
  16   2.0000      -0.704751       -19.1772
  17   2.0000      -0.660217       -17.9654
  18   2.0000      -0.649355       -17.6698
  19   2.0000      -0.610843       -16.6219
  20   2.0000      -0.577425       -15.7125
  21   2.0000      -0.574046       -15.6206
  22   2.0000      -0.566065       -15.4034
  23   2.0000      -0.550361       -14.9761
  24   2.0000      -0.524416       -14.2701
  25   2.0000      -0.506598       -13.7852
  26   2.0000      -0.451211       -12.2781
  27   2.0000      -0.443051       -12.0560
  28   2.0000      -0.411761       -11.2046
  29   2.0000      -0.362665        -9.8686
  30   0.0000       0.134573         3.6619
  31   0.0000       0.157797         4.2939
  32   0.0000       0.167815         4.5665
  33   0.0000       0.177425         4.8280
  34   0.0000       0.182829         4.9750

MULLIKEN ATOMIC CHARGES
-----------------------
   0 C :   -0.422225
   1 C :   -0.088650
   2 C :   -0.307577
   3 C :    0.174035
   4 C :   -0.131391
   5 N :   -0.271722
   6 C :    0.098731
   7 O :   -0.261539
   8 H :    0.129108
   9 H :    0.141560
  10 H :    0.142037
  11 H :    0.128300
  12 H :    0.141322
  13 H :    0.130967
  14 H :    0.123485
  15 H :    0.127554
  16 H :    0.146005
Sum of atomic charges:   -0.0000000

LOEWDIN ATOMIC CHARGES
----------------------
   0 C :   -0.292792
   1 C :   -0.215107
   2 C :   -0.187170
   3 C :   -0.267222
   4 C :   -0.235785
   5 N :    0.061147
   6 C :   -0.346903
   7 O :    0.260942
   8 H :    0.126999
   9 H :    0.128401
  10 H :    0.128016
  11 H :    0.155176
  12 H :    0.140079
  13 H :    0.136985
  14 H :    0.136331
  15 H :    0.136979
  16 H :    0.133922

  Mayer bond orders larger than 0.1
B(  0-C ,  1-C ) :   0.8975 B(  0-C ,  8-H ) :   0.9329 B(  0-C ,  9-H ) :   0.9358
B(  0-C , 10-H ) :   0.9399 B(  1-C ,  2-C ) :   0.9047 B(  1-C ,  3-C ) :   0.8425
B(  1-C , 11-H ) :   0.9210 B(  2-C ,  3-C ) :   0.8650 B(  2-C , 12-H ) :   0.9194
B(  2-C , 13-H ) :   0.9156 B(  3-C ,  4-C ) :   0.9432 B(  3-C ,  7-O ) :   0.8853
B(  4-C ,  5-N ) :   0.9510 B(  4-C , 14-H ) :   0.9143 B(  4-C , 15-H ) :   0.9189
B(  5-N ,  6-C ) :   1.8282 B(  6-C ,  7-O ) :   1.0635 B(  6-C , 16-H ) :   0.9224

MP2 TOTAL ENERGY:     -363.235880188 Eh
FINAL SINGLE POINT ENERGY      -363.235880188392

DIPOLE MOMENT
-------------
                                X             Y             Z
Electronic contribution:     -0.93291      -5.82576       5.20775
Nuclear contribution   :      0.90395       6.05078      -5.96090
                        -----------------------------------------
Total Dipole Moment    :     -0.02895       0.22502      -0.75315
                        -----------------------------------------
Magnitude (a.u.)       :      0.78657
Magnitude (Debye)      :      1.99931

                             ****ORCA TERMINATED NORMALLY****
TOTAL RUN TIME: 0 days 0 hours 12 minutes 31 seconds 987 msec
