                         Program Version 3.0.3 - RELEASE   -
|  1> ! RI-MP2 RIJK def2-TZVP def2-TZVP/C def2-TZVP/JK TIGHTSCF
|  2> % maxcore 2000
|  3> % mp2 density relaxed end
|  4> *xyz 0 1
|  5>  C       -0.1156411967     1.5637940941    -0.0826482033
|  6>  C        0.0295286001     0.0424167641     0.0158670728
|  7>  O        0.7185594150    -0.4600532678    -1.1285790678
|  8>  C        0.7927956375    -0.4894723073     1.2588164150
|  9>  C        0.7555688539    -2.0308621427     1.2244120837
| 10>  C        2.2562946937    -0.0101712870     1.2675929099
| 11>  C        0.0780323163     0.0007174293     2.5305768762
| 12>  O        0.6886952166    -0.6073769652     3.6611306822
| 13>  H        0.8597741259     2.0563875475    -0.1112696643
| 14>  H       -0.6499351883     1.8251494823    -1.0041437697
| 15>  H       -0.6940453462     1.9765139147     0.7490868352
| 16>  H       -0.9838844339    -0.3941553042     0.0530285974
| 17>  H        0.2614293872    -0.1414265111    -1.9124806375
| 18>  H        1.2513021632    -2.4042741242     0.3267090927
| 19>  H        1.2488066899    -2.4436666452     2.1062446155
| 20>  H       -0.2782978676    -2.3967644169     1.2163806500
| 21>  H        2.3269671539     1.0802167017     1.3412218540
| 22>  H        2.7795594999    -0.4308837232     2.1292683180
| 23>  H        2.7666999437    -0.3228897653     0.3543087406
| 24>  H        0.1491539654     1.0959062979     2.6041259536
| 25>  H       -0.9923557033    -0.2613096336     2.4760147436
| 26>  H        0.2663047638    -0.2598307779     4.4512234224
| 27> *
| 28>
| 29>                          ****END OF INPUT****

CARTESIAN COORDINATES (ANGSTROEM)
---------------------------------
  C     -0.115641    1.563794   -0.082648
  C      0.029529    0.042417    0.015867
  O      0.718559   -0.460053   -1.128579
  C      0.792796   -0.489472    1.258816
  C      0.755569   -2.030862    1.224412
  C      2.256295   -0.010171    1.267593
  C      0.078032    0.000717    2.530577
  O      0.688695   -0.607377    3.661131
  H      0.859774    2.056388   -0.111270
  H     -0.649935    1.825149   -1.004144
  H     -0.694045    1.976514    0.749087
  H     -0.983884   -0.394155    0.053029
  H      0.261429   -0.141427   -1.912481
  H      1.251302   -2.404274    0.326709
  H      1.248807   -2.443667    2.106245
  H     -0.278298   -2.396764    1.216381
  H      2.326967    1.080217    1.341222
  H      2.779559   -0.430884    2.129268
  H      2.766700   -0.322890    0.354309
  H      0.149154    1.095906    2.604126
  H     -0.992356   -0.261310    2.476015
  H      0.266305   -0.259831    4.451223

 Total Charge           Charge          ....    0
 Multiplicity           Mult            ....    1
 Number of Electrons    NEL             ....   66
 Basis Dimension        Dim             ....  332

ORBITAL ENERGIES
----------------

  NO   OCC          E(Eh)            E(eV)
   0   2.0000     -20.553339      -559.2848
   1   2.0000     -20.550694      -559.2128
   2   2.0000     -11.279314      -306.9257
   3   2.0000     -11.272284      -306.7344
   4   2.0000     -11.228785      -305.5508
   5   2.0000     -11.219874      -305.3083
   6   2.0000     -11.195985      -304.6582
   7   2.0000     -11.193527      -304.5914
   8   2.0000      -1.359977       -37.0069
   9   2.0000      -1.357166       -36.9304
  10   2.0000      -1.090713       -29.6798
  11   2.0000      -0.993724       -27.0406
  12   2.0000      -0.918216       -24.9859
  13   2.0000      -0.911741       -24.8097
  14   2.0000      -0.852576       -23.1998
  15   2.0000      -0.723993       -19.7008
  16   2.0000      -0.701558       -19.0904
  17   2.0000      -0.691256       -18.8100
  18   2.0000      -0.636697       -17.3254
  19   2.0000      -0.619779       -16.8650
  20   2.0000      -0.602211       -16.3870
  21   2.0000      -0.582315       -15.8456
  22   2.0000      -0.566931       -15.4270
  23   2.0000      -0.540790       -14.7156
  24   2.0000      -0.530144       -14.4260
  25   2.0000      -0.526712       -14.3326
  26   2.0000      -0.514730       -14.0065
  27   2.0000      -0.506937       -13.7945
  28   2.0000      -0.468291       -12.7428
  29   2.0000      -0.453110       -12.3298
  30   2.0000      -0.440422       -11.9845
  31   2.0000      -0.439205       -11.9514
  32   2.0000      -0.428908       -11.6712
  33   0.0000       0.125922         3.4265
  34   0.0000       0.142787         3.8854
  35   0.0000       0.167736         4.5643
  36   0.0000       0.171622         4.6701
  37   0.0000       0.179327         4.8797

MULLIKEN ATOMIC CHARGES
-----------------------
   0 C :   -0.458811
   1 C :    0.097285
   2 O :   -0.470231
   3 C :    0.169987
   4 C :   -0.426083
   5 C :   -0.470678
   6 C :   -0.109658
   7 O :   -0.469899
   8 H :    0.149051
   9 H :    0.124870
  10 H :    0.128632
  11 H :    0.080325
  12 H :    0.308501
  13 H :    0.151509
  14 H :    0.151178
  15 H :    0.109316
  16 H :    0.114571
  17 H :    0.150992
  18 H :    0.152818
  19 H :    0.104015
  20 H :    0.098275
  21 H :    0.314034
Sum of atomic charges:    0.0000000

LOEWDIN ATOMIC CHARGES
----------------------
   0 C :   -0.304174
   1 C :   -0.332637
   2 O :   -0.014078
   3 C :   -0.315570
   4 C :   -0.268061
   5 C :   -0.268477
   6 C :   -0.309487
   7 O :   -0.039356
   8 H :    0.126554
   9 H :    0.120708
  10 H :    0.124532
  11 H :    0.136054
  12 H :    0.171633
  13 H :    0.129216
  14 H :    0.128699
  15 H :    0.122846
  16 H :    0.120516
  17 H :    0.130571
  18 H :    0.130371
  19 H :    0.118400
  20 H :    0.119513
  21 H :    0.172226

  Mayer bond orders larger than 0.1
B(  0-C ,  1-C ) :   0.9070 B(  0-C ,  8-H ) :   0.9398 B(  0-C ,  9-H ) :   0.9349
B(  0-C , 10-H ) :   0.9324 B(  1-C ,  2-O ) :   0.9705 B(  1-C ,  3-C ) :   0.8648
B(  1-C , 11-H ) :   0.9271 B(  2-O , 12-H ) :   0.8469 B(  3-C ,  4-C ) :   0.9147
B(  3-C ,  5-C ) :   0.9143 B(  3-C ,  6-C ) :   0.8892 B(  4-C , 13-H ) :   0.9359
B(  4-C , 14-H ) :   0.9333 B(  4-C , 15-H ) :   0.9284 B(  5-C , 16-H ) :   0.9336
B(  5-C , 17-H ) :   0.9343 B(  5-C , 18-H ) :   0.9347 B(  6-C ,  7-O ) :   1.0190
B(  6-C , 19-H ) :   0.9291 B(  6-C , 20-H ) :   0.9245 B(  7-O , 21-H ) :   0.8486

MP2 TOTAL ENERGY:     -386.719262618 Eh
FINAL SINGLE POINT ENERGY      -386.719262618206

DIPOLE MOMENT
-------------
                                X             Y             Z
Electronic contribution:     -0.18075      -1.52325       0.60783
Nuclear contribution   :     -0.70242       2.27901      -0.58441
                        -----------------------------------------
Total Dipole Moment    :     -0.88318       0.75576       0.02342
                        -----------------------------------------
Magnitude (a.u.)       :      1.16264
Magnitude (Debye)      :      2.95519

                             ****ORCA TERMINATED NORMALLY****
TOTAL RUN TIME: 0 days 0 hours 15 minutes 2 seconds 80 msec
