                         Program Version 3.0.3 - RELEASE   -
|  1> ! RI-MP2 RIJK def2-TZVP def2-TZVP/C def2-TZVP/JK TIGHTSCF
|  2> % maxcore 2000
|  3> % mp2 density relaxed end
|  4> *xyz 0 1
|  5>  C       -0.0451049106     1.6502985043     0.0262325115
|  6>  C        0.1370829350     0.1368481552     0.0951702776
|  7>  C        1.3650889126    -0.7198298632    -0.2058148785
|  8>  C        2.6826111140    -0.2235197626     0.4476187144
|  9>  C        2.0631274957    -0.2442469455     1.7914687880
| 10>  N        2.4547238103     1.0405581674     1.1822557271
| 11>  C        3.6804338342     1.5889940003     1.7574337934
| 12>  C        0.7184593691    -0.7455900382     1.1698297594
| 13>  O        0.0323730736    -1.8012239765     1.7462557339
| 14>  H        0.7250840896     2.1233825496    -0.5845567826
| 15>  H       -1.0208859145     1.8833623803    -0.4151817476
| 16>  H        0.0018950661     2.1138893414     1.0130289972
| 17>  H       -0.7197948432    -0.4032586787    -0.3094074503
| 18>  H        1.3497075357    -1.4811968512    -0.9755782474
| 19>  H        3.6821374765    -0.5092603602     0.1449391915
| 20>  H        2.4679852174    -0.5740015929     2.7405051029
| 21>  H        4.4049594032     0.8208734069     2.0789394198
| 22>  H        4.1682256620     2.2299172298     1.0162750393
| 23>  H        3.4254016665     2.2023607126     2.6274154844
| 24>  H       -0.6467620433    -1.4372758988     2.3257544560
| 25> *
| 26>
| 27>                          ****END OF INPUT****

CARTESIAN COORDINATES (ANGSTROEM)
---------------------------------
  C     -0.045105    1.650299    0.026233
  C      0.137083    0.136848    0.095170
  C      1.365089   -0.719830   -0.205815
  C      2.682611   -0.223520    0.447619
  C      2.063127   -0.244247    1.791469
  N      2.454724    1.040558    1.182256
  C      3.680434    1.588994    1.757434
  C      0.718459   -0.745590    1.169830
  O      0.032373   -1.801224    1.746256
  H      0.725084    2.123383   -0.584557
  H     -1.020886    1.883362   -0.415182
  H      0.001895    2.113889    1.013029
  H     -0.719795   -0.403259   -0.309407
  H      1.349708   -1.481197   -0.975578
  H      3.682137   -0.509260    0.144939
  H      2.467985   -0.574002    2.740505
  H      4.404959    0.820873    2.078939
  H      4.168226    2.229917    1.016275
  H      3.425402    2.202361    2.627415
  H     -0.646762   -1.437276    2.325754

 Total Charge           Charge          ....    0
 Multiplicity           Mult            ....    1
 Number of Electrons    NEL             ....   68
 Basis Dimension        Dim             ....  345

ORBITAL ENERGIES
----------------

  NO   OCC          E(Eh)            E(eV)
   0   2.0000     -20.566823      -559.6517
   1   2.0000     -15.561434      -423.4482
   2   2.0000     -11.286849      -307.1308
   3   2.0000     -11.258861      -306.3692
   4   2.0000     -11.256892      -306.3156
   5   2.0000     -11.248554      -306.0887
   6   2.0000     -11.235196      -305.7252
   7   2.0000     -11.228406      -305.5405
   8   2.0000     -11.202870      -304.8456
   9   2.0000      -1.377974       -37.4966
  10   2.0000      -1.289134       -35.0791
  11   2.0000      -1.134615       -30.8744
  12   2.0000      -0.998822       -27.1793
  13   2.0000      -0.942515       -25.6471
  14   2.0000      -0.869091       -23.6492
  15   2.0000      -0.839848       -22.8534
  16   2.0000      -0.757276       -20.6065
  17   2.0000      -0.742774       -20.2119
  18   2.0000      -0.720276       -19.5997
  19   2.0000      -0.647431       -17.6175
  20   2.0000      -0.621980       -16.9249
  21   2.0000      -0.607012       -16.5176
  22   2.0000      -0.589198       -16.0329
  23   2.0000      -0.579722       -15.7750
  24   2.0000      -0.559984       -15.2379
  25   2.0000      -0.550648       -14.9839
  26   2.0000      -0.520232       -14.1562
  27   2.0000      -0.505711       -13.7611
  28   2.0000      -0.493731       -13.4351
  29   2.0000      -0.482111       -13.1189
  30   2.0000      -0.436334       -11.8732
  31   2.0000      -0.394197       -10.7266
  32   2.0000      -0.385010       -10.4766
  33   2.0000      -0.321951        -8.7607
  34   0.0000       0.138907         3.7799
  35   0.0000       0.147438         4.0120
  36   0.0000       0.165709         4.5092
  37   0.0000       0.171275         4.6606
  38   0.0000       0.174400         4.7457

MULLIKEN ATOMIC CHARGES
-----------------------
   0 C :   -0.315773
   1 C :   -0.204843
   2 C :   -0.086588
   3 C :   -0.128558
   4 C :   -0.191591
   5 N :   -0.191011
   6 C :   -0.329189
   7 C :    0.285933
   8 O :   -0.459592
   9 H :    0.129223
  10 H :    0.117899
  11 H :    0.125378
  12 H :    0.115382
  13 H :    0.146600
  14 H :    0.132973
  15 H :    0.135976
  16 H :    0.105930
  17 H :    0.143019
  18 H :    0.141359
  19 H :    0.327474
Sum of atomic charges:   -0.0000000

LOEWDIN ATOMIC CHARGES
----------------------
   0 C :   -0.306187
   1 C :   -0.189903
   2 C :   -0.127129
   3 C :   -0.193886
   4 C :   -0.181394
   5 N :    0.119691
   6 C :   -0.329402
   7 C :   -0.297103
   8 O :    0.028367
   9 H :    0.126236
  10 H :    0.117039
  11 H :    0.124533
  12 H :    0.165183
  13 H :    0.141193
  14 H :    0.134731
  15 H :    0.136583
  16 H :    0.108036
  17 H :    0.119005
  18 H :    0.118582
  19 H :    0.185825

  Mayer bond orders larger than 0.1
B(  0-C ,  1-C ) :   0.8580 B(  0-C ,  9-H ) :   0.9394 B(  0-C , 10-H ) :   0.9261
B(  0-C , 11-H ) :   0.9406 B(  1-C ,  2-C ) :   0.8743 B(  1-C ,  7-C ) :   0.9363
B(  1-C , 12-H ) :   0.9348 B(  2-C ,  3-C ) :   0.8909 B(  2-C ,  7-C ) :   0.8630
B(  2-C , 13-H ) :   0.9046 B(  3-C ,  4-C ) :   0.9749 B(  3-C ,  5-N ) :   0.8840
B(  3-C , 14-H ) :   0.9203 B(  4-C ,  5-N ) :   0.8775 B(  4-C ,  7-C ) :   0.8675
B(  4-C , 15-H ) :   0.9173 B(  5-N ,  6-C ) :   0.8657 B(  6-C , 16-H ) :   0.9200
B(  6-C , 17-H ) :   0.9402 B(  6-C , 18-H ) :   0.9402 B(  7-C ,  8-O ) :   1.0109
B(  8-O , 19-H ) :   0.8359

MP2 TOTAL ENERGY:     -402.349971098 Eh
FINAL SINGLE POINT ENERGY      -402.349971097734

DIPOLE MOMENT
-------------
                                X             Y             Z
Electronic contribution:     -1.67647      -5.46400       0.73576
Nuclear contribution   :      1.86146       5.68161      -0.42577
                        -----------------------------------------
Total Dipole Moment    :      0.18499       0.21761       0.30999
                        -----------------------------------------
Magnitude (a.u.)       :      0.42151
Magnitude (Debye)      :      1.07140

                             ****ORCA TERMINATED NORMALLY****
TOTAL RUN TIME: 0 days 0 hours 17 minutes 19 seconds 79 msec
