                         Program Version 3.0.3 - RELEASE   -
|  1> ! RI-MP2 RIJK def2-TZVP def2-TZVP/C def2-TZVP/JK TIGHTSCF
|  2> % maxcore 2000
|  3> % mp2 density relaxed end
|  4> *xyz 0 1
|  5>  O        0.2095366561     1.2631573097    -0.2100248154
|  6>  C        0.0462295944    -0.0701395827     0.2573206171
|  7>  C       -1.3906201066    -0.5321012899     0.1910031850
|  8>  C       -1.9461991214    -1.0724101417    -1.1205019982
|  9>  C       -1.7179437853    -2.0010560122     0.0440130047
| 10>  O       -0.6476130967    -2.9223631055    -0.0540478570
| 11>  C       -0.9884929277    -4.1244638226     0.6402917130
| 12>  C       -2.3867680334    -3.8996725660     1.1471424398
| 13>  C       -2.7920596871    -2.6825067042     0.7980096291
| 14>  H       -0.1325944899     1.2918957835    -1.1097654542
| 15>  H        0.6865377817    -0.7753260601    -0.2900448575
| 16>  H        0.3915545227    -0.0591294355     1.2965040211
| 17>  H       -2.0772438423     0.0534031649     0.7976027185
| 18>  H       -2.9622828200    -0.8270230416    -1.4110016874
| 19>  H       -1.2495081032    -1.1839745083    -1.9463424477
| 20>  H       -0.9176056931    -4.9789452166    -0.0500449142
| 21>  H       -0.2677855123    -4.3026828862     1.4539284919
| 22>  H       -2.9423485625    -4.6391144959     1.7085272997
| 23>  H       -3.7451613035    -2.2181213490     1.0139898318
| 24> *
| 25>
| 26>                          ****END OF INPUT****

CARTESIAN COORDINATES (ANGSTROEM)
---------------------------------
  O      0.209537    1.263157   -0.210025
  C      0.046230   -0.070140    0.257321
  C     -1.390620   -0.532101    0.191003
  C     -1.946199   -1.072410   -1.120502
  C     -1.717944   -2.001056    0.044013
  O     -0.647613   -2.922363   -0.054048
  C     -0.988493   -4.124464    0.640292
  C     -2.386768   -3.899673    1.147142
  C     -2.792060   -2.682507    0.798010
  H     -0.132594    1.291896   -1.109765
  H      0.686538   -0.775326   -0.290045
  H      0.391555   -0.059129    1.296504
  H     -2.077244    0.053403    0.797603
  H     -2.962283   -0.827023   -1.411002
  H     -1.249508   -1.183975   -1.946342
  H     -0.917606   -4.978945   -0.050045
  H     -0.267786   -4.302683    1.453928
  H     -2.942349   -4.639114    1.708527
  H     -3.745161   -2.218121    1.013990

 Total Charge           Charge          ....    0
 Multiplicity           Mult            ....    1
 Number of Electrons    NEL             ....   68
 Basis Dimension        Dim             ....  339

ORBITAL ENERGIES
----------------

  NO   OCC          E(Eh)            E(eV)
   0   2.0000     -20.560656      -559.4839
   1   2.0000     -20.547513      -559.1263
   2   2.0000     -11.297215      -307.4129
   3   2.0000     -11.286345      -307.1170
   4   2.0000     -11.269877      -306.6690
   5   2.0000     -11.241265      -305.8904
   6   2.0000     -11.238533      -305.8160
   7   2.0000     -11.232646      -305.6558
   8   2.0000     -11.229706      -305.5758
   9   2.0000      -1.389806       -37.8185
  10   2.0000      -1.351149       -36.7666
  11   2.0000      -1.144954       -31.1558
  12   2.0000      -1.078360       -29.3437
  13   2.0000      -0.958028       -26.0693
  14   2.0000      -0.924698       -25.1623
  15   2.0000      -0.812416       -22.1070
  16   2.0000      -0.784948       -21.3595
  17   2.0000      -0.763643       -20.7798
  18   2.0000      -0.703138       -19.1334
  19   2.0000      -0.688575       -18.7371
  20   2.0000      -0.651785       -17.7360
  21   2.0000      -0.630574       -17.1588
  22   2.0000      -0.619482       -16.8570
  23   2.0000      -0.594259       -16.1706
  24   2.0000      -0.566232       -15.4079
  25   2.0000      -0.551945       -15.0192
  26   2.0000      -0.532377       -14.4867
  27   2.0000      -0.518485       -14.1087
  28   2.0000      -0.502646       -13.6777
  29   2.0000      -0.491531       -13.3752
  30   2.0000      -0.443390       -12.0653
  31   2.0000      -0.425846       -11.5879
  32   2.0000      -0.419754       -11.4221
  33   2.0000      -0.332772        -9.0552
  34   0.0000       0.139359         3.7921
  35   0.0000       0.144844         3.9414
  36   0.0000       0.153244         4.1700
  37   0.0000       0.160879         4.3778
  38   0.0000       0.179975         4.8974

MULLIKEN ATOMIC CHARGES
-----------------------
   0 O :   -0.471750
   1 C :   -0.040706
   2 C :   -0.189412
   3 C :   -0.339536
   4 C :    0.307668
   5 O :   -0.321123
   6 C :    0.014571
   7 C :   -0.197668
   8 C :   -0.213679
   9 H :    0.314415
  10 H :    0.125203
  11 H :    0.113999
  12 H :    0.120364
  13 H :    0.135120
  14 H :    0.141789
  15 H :    0.110506
  16 H :    0.107910
  17 H :    0.140762
  18 H :    0.141567
Sum of atomic charges:   -0.0000000

LOEWDIN ATOMIC CHARGES
----------------------
   0 O :   -0.052716
   1 C :   -0.324325
   2 C :   -0.199190
   3 C :   -0.189463
   4 C :   -0.285814
   5 O :    0.203261
   6 C :   -0.272203
   7 C :   -0.157966
   8 C :   -0.121417
   9 H :    0.172556
  10 H :    0.125654
  11 H :    0.132936
  12 H :    0.150667
  13 H :    0.133791
  14 H :    0.141944
  15 H :    0.127412
  16 H :    0.126897
  17 H :    0.140739
  18 H :    0.147236

  Mayer bond orders larger than 0.1
B(  0-O ,  1-C ) :   0.9042 B(  0-O ,  9-H ) :   0.8474 B(  1-C ,  2-C ) :   0.9253
B(  1-C , 10-H ) :   0.9264 B(  1-C , 11-H ) :   0.9321 B(  2-C ,  3-C ) :   0.9010
B(  2-C ,  4-C ) :   0.7866 B(  2-C , 12-H ) :   0.9202 B(  3-C ,  4-C ) :   0.8164
B(  3-C , 13-H ) :   0.9200 B(  3-C , 14-H ) :   0.9240 B(  4-C ,  5-O ) :   0.9629
B(  4-C ,  8-C ) :   0.9400 B(  5-O ,  6-C ) :   0.9268 B(  6-C ,  7-C ) :   0.9819
B(  6-C , 15-H ) :   0.9148 B(  6-C , 16-H ) :   0.9095 B(  7-C ,  8-C ) :   1.8091
B(  7-C , 17-H ) :   0.9198 B(  8-C , 18-H ) :   0.9079

MP2 TOTAL ENERGY:     -422.292821224 Eh
FINAL SINGLE POINT ENERGY      -422.292821224262

DIPOLE MOMENT
-------------
                                X             Y             Z
Electronic contribution:      0.08970      -0.34676       0.16490
Nuclear contribution   :     -0.87512      -0.37916      -0.17968
                        -----------------------------------------
Total Dipole Moment    :     -0.78543      -0.72592      -0.01478
                        -----------------------------------------
Magnitude (a.u.)       :      1.06962
Magnitude (Debye)      :      2.71875

                             ****ORCA TERMINATED NORMALLY****
TOTAL RUN TIME: 0 days 0 hours 25 minutes 9 seconds 276 msec
