                         Program Version 3.0.3 - RELEASE   -
|  1> ! RI-MP2 RIJK def2-TZVP def2-TZVP/C def2-TZVP/JK TIGHTSCF
|  2> % maxcore 2000
|  3> % mp2 density relaxed end
|  4> *xyz 0 1
|  5>  N       -0.0779363040     1.2478782019    -0.4320324220
|  6>  C        0.0096939940     0.1388314904     0.1352567166
|  7>  O        1.1402197606    -0.4436745157     0.5884395212
|  8>  N        1.1678910184    -1.9402353278     0.7531609293
|  9>  N        0.1070784154    -2.5122713429     0.8398618302
| 10>  C       -1.1700609617    -1.8108319202     0.8532900726
| 11>  O       -2.1495537865    -2.3561181748     1.2354351691
| 12>  O       -1.1619120433    -0.5526213933     0.3789050264
| 13>  H        0.8387702972     1.6699664024    -0.5636141133
| 14> *
| 15>
| 16>                          ****END OF INPUT****

CARTESIAN COORDINATES (ANGSTROEM)
---------------------------------
  N     -0.077936    1.247878   -0.432032
  C      0.009694    0.138831    0.135257
  O      1.140220   -0.443675    0.588440
  N      1.167891   -1.940235    0.753161
  N      0.107078   -2.512271    0.839862
  C     -1.170061   -1.810832    0.853290
  O     -2.149554   -2.356118    1.235435
  O     -1.161912   -0.552621    0.378905
  H      0.838770    1.669966   -0.563614

 Total Charge           Charge          ....    0
 Multiplicity           Mult            ....    1
 Number of Electrons    NEL             ....   58
 Basis Dimension        Dim             ....  254

ORBITAL ENERGIES
----------------

  NO   OCC          E(Eh)            E(eV)
   0   2.0000     -20.688864      -562.9726
   1   2.0000     -20.687212      -562.9276
   2   2.0000     -20.618373      -561.0545
   3   2.0000     -15.800164      -429.9443
   4   2.0000     -15.714996      -427.6268
   5   2.0000     -15.579880      -423.9501
   6   2.0000     -11.484173      -312.5002
   7   2.0000     -11.450486      -311.5836
   8   2.0000      -1.587637       -43.2018
   9   2.0000      -1.508140       -41.0386
  10   2.0000      -1.465169       -39.8693
  11   2.0000      -1.408567       -38.3291
  12   2.0000      -1.245930       -33.9035
  13   2.0000      -1.050101       -28.5747
  14   2.0000      -0.965939       -26.2845
  15   2.0000      -0.875344       -23.8193
  16   2.0000      -0.781485       -21.2653
  17   2.0000      -0.761279       -20.7155
  18   2.0000      -0.742105       -20.1937
  19   2.0000      -0.712113       -19.3776
  20   2.0000      -0.674969       -18.3668
  21   2.0000      -0.658974       -17.9316
  22   2.0000      -0.629219       -17.1219
  23   2.0000      -0.612639       -16.6708
  24   2.0000      -0.568373       -15.4662
  25   2.0000      -0.534750       -14.5513
  26   2.0000      -0.515409       -14.0250
  27   2.0000      -0.479724       -13.0539
  28   2.0000      -0.445863       -12.1325
  29   0.0000       0.018576         0.5055
  30   0.0000       0.133596         3.6353
  31   0.0000       0.134301         3.6545
  32   0.0000       0.168551         4.5865
  33   0.0000       0.170282         4.6336

MULLIKEN ATOMIC CHARGES
-----------------------
   0 N :   -0.346581
   1 C :    0.277454
   2 O :   -0.196460
   3 N :    0.087177
   4 N :   -0.051536
   5 C :    0.314630
   6 O :   -0.193043
   7 O :   -0.144848
   8 H :    0.253207
Sum of atomic charges:   -0.0000000

LOEWDIN ATOMIC CHARGES
----------------------
   0 N :   -0.020654
   1 C :   -0.539814
   2 O :    0.156467
   3 N :    0.077593
   4 N :    0.089262
   5 C :   -0.520267
   6 O :    0.217941
   7 O :    0.353464
   8 H :    0.186008

  Mayer bond orders larger than 0.1
B(  0-N ,  1-C ) :   1.9851 B(  0-N ,  8-H ) :   0.8365 B(  1-C ,  2-O ) :   1.1112
B(  1-C ,  7-O ) :   0.9639 B(  2-O ,  3-N ) :   0.6901 B(  3-N ,  4-N ) :   1.7048
B(  4-N ,  5-C ) :   0.9148 B(  5-C ,  6-O ) :   2.0672 B(  5-C ,  7-O ) :   1.0932

MP2 TOTAL ENERGY:     -465.891264688 Eh
FINAL SINGLE POINT ENERGY      -465.891264687795

DIPOLE MOMENT
-------------
                                X             Y             Z
Electronic contribution:     -0.26538      -2.41191       0.95938
Nuclear contribution   :      1.03114       2.51483      -1.03523
                        -----------------------------------------
Total Dipole Moment    :      0.76576       0.10292      -0.07585
                        -----------------------------------------
Magnitude (a.u.)       :      0.77636
Magnitude (Debye)      :      1.97335

                             ****ORCA TERMINATED NORMALLY****
TOTAL RUN TIME: 0 days 0 hours 7 minutes 48 seconds 490 msec
