                         Program Version 3.0.3 - RELEASE   -
|  1> ! RI-MP2 RIJK def2-TZVP def2-TZVP/C def2-TZVP/JK TIGHTSCF
|  2> % maxcore 2000
|  3> % mp2 density relaxed end
|  4> *xyz 0 1
|  5>  O        0.0062665887     1.2894985108    -0.1490661018
|  6>  N        0.0245044411    -0.0891144643    -0.1629719129
|  7>  C       -1.1161451750    -0.6340455732     0.0028240825
|  8>  C       -1.2150932061    -2.1431879871     0.0689687358
|  9>  O       -0.8350490526    -2.6296639804     1.3504345479
| 10>  C       -2.7255916588    -2.4080530168    -0.0988654797
| 11>  N       -3.3347386381    -1.1169138544     0.1706123062
| 12>  C       -2.4909527960    -0.0361463223     0.1901903927
| 13>  O       -2.8093243349     1.1225482475     0.3313672454
| 14>  H        0.9318539620     1.5111451456    -0.3057913444
| 15>  H       -0.6261865354    -2.6234684144    -0.7214493489
| 16>  H        0.0335666515    -2.2597584821     1.5462463285
| 17>  H       -2.9573090493    -2.7618632032    -1.1112645709
| 18>  H       -3.0426708169    -3.1680232563     0.6204096616
| 19>  H       -4.3302129503    -0.9767049193     0.2355546980
| 20> *
| 21>
| 22>                          ****END OF INPUT****

CARTESIAN COORDINATES (ANGSTROEM)
---------------------------------
  O      0.006267    1.289499   -0.149066
  N      0.024504   -0.089114   -0.162972
  C     -1.116145   -0.634046    0.002824
  C     -1.215093   -2.143188    0.068969
  O     -0.835049   -2.629664    1.350435
  C     -2.725592   -2.408053   -0.098865
  N     -3.334739   -1.116914    0.170612
  C     -2.490953   -0.036146    0.190190
  O     -2.809324    1.122548    0.331367
  H      0.931854    1.511145   -0.305791
  H     -0.626187   -2.623468   -0.721449
  H      0.033567   -2.259758    1.546246
  H     -2.957309   -2.761863   -1.111265
  H     -3.042671   -3.168023    0.620410
  H     -4.330213   -0.976705    0.235555

 Total Charge           Charge          ....    0
 Multiplicity           Mult            ....    1
 Number of Electrons    NEL             ....   68
 Basis Dimension        Dim             ....  315

ORBITAL ENERGIES
----------------

  NO   OCC          E(Eh)            E(eV)
   0   2.0000     -20.615427      -560.9743
   1   2.0000     -20.578473      -559.9687
   2   2.0000     -20.528134      -558.5989
   3   2.0000     -15.658663      -426.0939
   4   2.0000     -15.596121      -424.3920
   5   2.0000     -11.364723      -309.2498
   6   2.0000     -11.315283      -307.9045
   7   2.0000     -11.295534      -307.3671
   8   2.0000     -11.287633      -307.1521
   9   2.0000      -1.453376       -39.5484
  10   2.0000      -1.394199       -37.9381
  11   2.0000      -1.383842       -37.6562
  12   2.0000      -1.261861       -34.3370
  13   2.0000      -1.180203       -32.1149
  14   2.0000      -1.022165       -27.8145
  15   2.0000      -0.949498       -25.8372
  16   2.0000      -0.844740       -22.9865
  17   2.0000      -0.776927       -21.1413
  18   2.0000      -0.733052       -19.9474
  19   2.0000      -0.715738       -19.4762
  20   2.0000      -0.704837       -19.1796
  21   2.0000      -0.667086       -18.1523
  22   2.0000      -0.644303       -17.5324
  23   2.0000      -0.620402       -16.8820
  24   2.0000      -0.612289       -16.6612
  25   2.0000      -0.609806       -16.5937
  26   2.0000      -0.589987       -16.0543
  27   2.0000      -0.550969       -14.9926
  28   2.0000      -0.521591       -14.1932
  29   2.0000      -0.495831       -13.4923
  30   2.0000      -0.484383       -13.1807
  31   2.0000      -0.413886       -11.2624
  32   2.0000      -0.411044       -11.1851
  33   2.0000      -0.399643       -10.8748
  34   0.0000       0.083753         2.2790
  35   0.0000       0.131002         3.5647
  36   0.0000       0.142455         3.8764
  37   0.0000       0.150049         4.0830
  38   0.0000       0.169760         4.6194

MULLIKEN ATOMIC CHARGES
-----------------------
   0 O :   -0.311569
   1 N :   -0.086213
   2 C :    0.003929
   3 C :    0.097713
   4 O :   -0.464981
   5 C :   -0.096841
   6 N :   -0.283316
   7 C :    0.164130
   8 O :   -0.304899
   9 H :    0.339328
  10 H :    0.108913
  11 H :    0.326347
  12 H :    0.122249
  13 H :    0.142793
  14 H :    0.242416
Sum of atomic charges:   -0.0000000

LOEWDIN ATOMIC CHARGES
----------------------
   0 O :   -0.024724
   1 N :    0.038643
   2 C :   -0.233616
   3 C :   -0.300681
   4 O :   -0.011161
   5 C :   -0.235190
   6 N :    0.131387
   7 C :   -0.430564
   8 O :    0.111021
   9 H :    0.176395
  10 H :    0.141228
  11 H :    0.180516
  12 H :    0.130916
  13 H :    0.140538
  14 H :    0.185290

  Mayer bond orders larger than 0.1
B(  0-O ,  1-N ) :   0.8721 B(  0-O ,  9-H ) :   0.8398 B(  1-N ,  2-C ) :   1.7705
B(  2-C ,  3-C ) :   0.9243 B(  2-C ,  7-C ) :   0.8855 B(  3-C ,  4-O ) :   0.9686
B(  3-C ,  5-C ) :   0.9167 B(  3-C , 10-H ) :   0.9493 B(  4-O , 11-H ) :   0.8348
B(  5-C ,  6-N ) :   0.8830 B(  5-C , 12-H ) :   0.9163 B(  5-C , 13-H ) :   0.9348
B(  6-N ,  7-C ) :   1.1990 B(  6-N , 14-H ) :   0.8613 B(  7-C ,  8-O ) :   2.0293

MP2 TOTAL ENERGY:     -490.303004494 Eh
FINAL SINGLE POINT ENERGY      -490.303004494072

DIPOLE MOMENT
-------------
                                X             Y             Z
Electronic contribution:      0.82440       4.50182       0.38554
Nuclear contribution   :     -0.47539      -5.57006      -0.90320
                        -----------------------------------------
Total Dipole Moment    :      0.34901      -1.06825      -0.51766
                        -----------------------------------------
Magnitude (a.u.)       :      1.23731
Magnitude (Debye)      :      3.14499

                             ****ORCA TERMINATED NORMALLY****
TOTAL RUN TIME: 0 days 0 hours 13 minutes 55 seconds 552 msec
