                         Program Version 3.0.3 - RELEASE   -
|  1> ! RI-MP2 RIJK def2-TZVP def2-TZVP/C def2-TZVP/JK TIGHTSCF
|  2> % maxcore 2000
|  3> % mp2 density relaxed end
|  4> *xyz 0 1
|  5>  C        0.0229321480     1.5169885567    -0.0854512509
|  6>  C        0.0621821083     0.0046233227     0.1346271520
|  7>  O        0.6596194559    -0.3214795761     1.3862278554
|  8>  C       -1.3369802193    -0.6209952750    -0.0200864010
|  9>  N       -1.3646338988    -2.0705166777    -0.0148018175
| 10>  C       -1.2293558058    -2.7904516651     1.2446380409
| 11>  C       -1.5824530292    -2.7670962080    -1.1680440520
| 12>  O       -1.6370112001    -3.9744770463    -1.2700705047
| 13>  H        1.0184727923     1.9413369349     0.0661944396
| 14>  H       -0.3111845381     1.7675390610    -1.0971862042
| 15>  H       -0.6651714753     1.9985257082     0.6214820285
| 16>  H        0.7209320462    -0.4578026400    -0.6097941741
| 17>  H        0.1824051918     0.1549721373     2.0753400719
| 18>  H       -1.9890512152    -0.2418587263     0.7818608832
| 19>  H       -1.7675338137    -0.2773817356    -0.9674693438
| 20>  H       -2.0075711556    -2.4696780770     1.9491730474
| 21>  H       -1.3525688219    -3.8518059423     1.0294761306
| 22>  H       -0.2524402693    -2.6061815696     1.6955470296
| 23>  H       -1.7104695303    -2.0881701717    -2.0353211909
| 24> *
| 25>
| 26>                          ****END OF INPUT****

CARTESIAN COORDINATES (ANGSTROEM)
---------------------------------
  C      0.022932    1.516989   -0.085451
  C      0.062182    0.004623    0.134627
  O      0.659619   -0.321480    1.386228
  C     -1.336980   -0.620995   -0.020086
  N     -1.364634   -2.070517   -0.014802
  C     -1.229356   -2.790452    1.244638
  C     -1.582453   -2.767096   -1.168044
  O     -1.637011   -3.974477   -1.270071
  H      1.018473    1.941337    0.066194
  H     -0.311185    1.767539   -1.097186
  H     -0.665171    1.998526    0.621482
  H      0.720932   -0.457803   -0.609794
  H      0.182405    0.154972    2.075340
  H     -1.989051   -0.241859    0.781861
  H     -1.767534   -0.277382   -0.967469
  H     -2.007571   -2.469678    1.949173
  H     -1.352569   -3.851806    1.029476
  H     -0.252440   -2.606182    1.695547
  H     -1.710470   -2.088170   -2.035321

 Total Charge           Charge          ....    0
 Multiplicity           Mult            ....    1
 Number of Electrons    NEL             ....   64
 Basis Dimension        Dim             ....  314

ORBITAL ENERGIES
----------------

  NO   OCC          E(Eh)            E(eV)
   0   2.0000     -20.569019      -559.7115
   1   2.0000     -20.516849      -558.2918
   2   2.0000     -15.589020      -424.1988
   3   2.0000     -11.343045      -308.6599
   4   2.0000     -11.297238      -307.4135
   5   2.0000     -11.281150      -306.9757
   6   2.0000     -11.249946      -306.1266
   7   2.0000     -11.235494      -305.7333
   8   2.0000      -1.380085       -37.5540
   9   2.0000      -1.375204       -37.4212
  10   2.0000      -1.250615       -34.0310
  11   2.0000      -1.056087       -28.7376
  12   2.0000      -0.971661       -26.4402
  13   2.0000      -0.942653       -25.6509
  14   2.0000      -0.843119       -22.9424
  15   2.0000      -0.779140       -21.2015
  16   2.0000      -0.715998       -19.4833
  17   2.0000      -0.676671       -18.4132
  18   2.0000      -0.669032       -18.2053
  19   2.0000      -0.643287       -17.5047
  20   2.0000      -0.633032       -17.2257
  21   2.0000      -0.597057       -16.2467
  22   2.0000      -0.581428       -15.8215
  23   2.0000      -0.565428       -15.3861
  24   2.0000      -0.553436       -15.0598
  25   2.0000      -0.539381       -14.6773
  26   2.0000      -0.532955       -14.5024
  27   2.0000      -0.527648       -14.3580
  28   2.0000      -0.492751       -13.4084
  29   2.0000      -0.467156       -12.7120
  30   2.0000      -0.426415       -11.6034
  31   2.0000      -0.370437       -10.0801
  32   0.0000       0.114799         3.1238
  33   0.0000       0.145075         3.9477
  34   0.0000       0.157686         4.2909
  35   0.0000       0.162606         4.4247
  36   0.0000       0.182228         4.9587

MULLIKEN ATOMIC CHARGES
-----------------------
   0 C :   -0.409208
   1 C :    0.122393
   2 O :   -0.467829
   3 C :   -0.256730
   4 N :   -0.047759
   5 C :   -0.343333
   6 C :    0.142921
   7 O :   -0.363243
   8 H :    0.156318
   9 H :    0.133289
  10 H :    0.119626
  11 H :    0.100064
  12 H :    0.312980
  13 H :    0.129111
  14 H :    0.136254
  15 H :    0.123910
  16 H :    0.176773
  17 H :    0.165721
  18 H :    0.068742
Sum of atomic charges:   -0.0000000

LOEWDIN ATOMIC CHARGES
----------------------
   0 C :   -0.303414
   1 C :   -0.373694
   2 O :   -0.018084
   3 C :   -0.260772
   4 N :    0.149552
   5 C :   -0.288848
   6 C :   -0.423170
   7 O :    0.053911
   8 H :    0.130122
   9 H :    0.127930
  10 H :    0.122412
  11 H :    0.147098
  12 H :    0.174263
  13 H :    0.135495
  14 H :    0.145264
  15 H :    0.115336
  16 H :    0.133824
  17 H :    0.121604
  18 H :    0.111173

  Mayer bond orders larger than 0.1
B(  0-C ,  1-C ) :   0.9435 B(  0-C ,  8-H ) :   0.9382 B(  0-C ,  9-H ) :   0.9330
B(  0-C , 10-H ) :   0.9175 B(  1-C ,  2-O ) :   0.9086 B(  1-C ,  3-C ) :   0.9022
B(  1-C , 11-H ) :   0.9200 B(  2-O , 12-H ) :   0.8407 B(  3-C ,  4-N ) :   0.9150
B(  3-C , 13-H ) :   0.9245 B(  3-C , 14-H ) :   0.9261 B(  4-N ,  5-C ) :   0.8559
B(  4-N ,  6-C ) :   1.1433 B(  5-C , 15-H ) :   0.9324 B(  5-C , 16-H ) :   0.9168
B(  5-C , 17-H ) :   0.9275 B(  6-C ,  7-O ) :   1.8984 B(  6-C , 18-H ) :   0.9276

MP2 TOTAL ENERGY:     -401.574237341 Eh
FINAL SINGLE POINT ENERGY      -401.574237340824

DIPOLE MOMENT
-------------
                                X             Y             Z
Electronic contribution:     -0.68990      -6.46071      -2.11932
Nuclear contribution   :      0.45763       8.30285       2.72316
                        -----------------------------------------
Total Dipole Moment    :     -0.23227       1.84213       0.60384
                        -----------------------------------------
Magnitude (a.u.)       :      1.95244
Magnitude (Debye)      :      4.96271

                             ****ORCA TERMINATED NORMALLY****
TOTAL RUN TIME: 0 days 0 hours 12 minutes 6 seconds 435 msec
