                         Program Version 3.0.3 - RELEASE   -
|  1> ! RI-MP2 RIJK def2-TZVP def2-TZVP/C def2-TZVP/JK TIGHTSCF
|  2> % maxcore 2000
|  3> % mp2 density relaxed end
|  4> *xyz 0 1
|  5>  O       -0.6375569124     0.9114468622    -0.7281183121
|  6>  C        0.1022764572     1.0811590753     0.2045009830
|  7>  C        1.3924407603     1.8849372875     0.1785704506
|  8>  C        1.4833120164     2.8070240615    -1.0209012981
|  9>  C        1.9339679650     4.0136635774    -0.6119605973
| 10>  C        0.8408422584     4.9900816780    -0.1729009874
| 11>  N        1.0708488890     4.4171913495     1.2379254794
| 12>  C        1.5255113150     2.9331391952     1.3184387460
| 13>  C        2.4326634442     3.9759005697     0.8364206500
| 14>  H       -0.1135190141     0.6297749839     1.2001577526
| 15>  H        2.1941683409     1.1420258486     0.3379881621
| 16>  H        0.7247621205     2.7076862527    -1.7904280475
| 17>  H        1.0977732241     6.0508794200    -0.1010837041
| 18>  H       -0.1567812892     4.8572720587    -0.5986890013
| 19>  H        1.4946199857     2.6221300218     2.3589059321
| 20>  H        3.3433138291     4.3701394682     1.2727438621
| 21> *
| 22>
| 23>                          ****END OF INPUT****

CARTESIAN COORDINATES (ANGSTROEM)
---------------------------------
  O     -0.637557    0.911447   -0.728118
  C      0.102276    1.081159    0.204501
  C      1.392441    1.884937    0.178570
  C      1.483312    2.807024   -1.020901
  C      1.933968    4.013664   -0.611961
  C      0.840842    4.990082   -0.172901
  N      1.070849    4.417191    1.237925
  C      1.525511    2.933139    1.318439
  C      2.432663    3.975901    0.836421
  H     -0.113519    0.629775    1.200158
  H      2.194168    1.142026    0.337988
  H      0.724762    2.707686   -1.790428
  H      1.097773    6.050879   -0.101084
  H     -0.156781    4.857272   -0.598689
  H      1.494620    2.622130    2.358906
  H      3.343314    4.370139    1.272744

 Total Charge           Charge          ....    0
 Multiplicity           Mult            ....    1
 Number of Electrons    NEL             ....   64
 Basis Dimension        Dim             ....  321

ORBITAL ENERGIES
----------------

  NO   OCC          E(Eh)            E(eV)
   0   2.0000     -20.570110      -559.7411
   1   2.0000     -15.586698      -424.1356
   2   2.0000     -11.346004      -308.7405
   3   2.0000     -11.292794      -307.2925
   4   2.0000     -11.290178      -307.2214
   5   2.0000     -11.277544      -306.8776
   6   2.0000     -11.273111      -306.7569
   7   2.0000     -11.253605      -306.2262
   8   2.0000     -11.246084      -306.0215
   9   2.0000      -1.410288       -38.3759
  10   2.0000      -1.315445       -35.7951
  11   2.0000      -1.101954       -29.9857
  12   2.0000      -1.040494       -28.3133
  13   2.0000      -0.955053       -25.9883
  14   2.0000      -0.856933       -23.3183
  15   2.0000      -0.828644       -22.5485
  16   2.0000      -0.787291       -21.4233
  17   2.0000      -0.744417       -20.2566
  18   2.0000      -0.680268       -18.5110
  19   2.0000      -0.674271       -18.3479
  20   2.0000      -0.643454       -17.5093
  21   2.0000      -0.625359       -17.0169
  22   2.0000      -0.615424       -16.7465
  23   2.0000      -0.586829       -15.9684
  24   2.0000      -0.536939       -14.6108
  25   2.0000      -0.529780       -14.4160
  26   2.0000      -0.510818       -13.9001
  27   2.0000      -0.480191       -13.0666
  28   2.0000      -0.441102       -12.0030
  29   2.0000      -0.426264       -11.5992
  30   2.0000      -0.395307       -10.7569
  31   2.0000      -0.328440        -8.9373
  32   0.0000       0.081249         2.2109
  33   0.0000       0.121247         3.2993
  34   0.0000       0.140874         3.8334
  35   0.0000       0.160701         4.3729
  36   0.0000       0.166436         4.5290

MULLIKEN ATOMIC CHARGES
-----------------------
   0 O :   -0.257511
   1 C :    0.080116
   2 C :    0.021589
   3 C :   -0.241921
   4 C :    0.044201
   5 C :   -0.139655
   6 N :   -0.213513
   7 C :   -0.194684
   8 C :   -0.026083
   9 H :    0.089327
  10 H :    0.136679
  11 H :    0.156189
  12 H :    0.132505
  13 H :    0.125900
  14 H :    0.137056
  15 H :    0.149805
Sum of atomic charges:    0.0000000

LOEWDIN ATOMIC CHARGES
----------------------
   0 O :    0.144363
   1 C :   -0.265164
   2 C :   -0.217908
   3 C :   -0.106537
   4 C :   -0.145938
   5 C :   -0.185982
   6 N :    0.145727
   7 C :   -0.172907
   8 C :   -0.180599
   9 H :    0.117267
  10 H :    0.176228
  11 H :    0.147734
  12 H :    0.133454
  13 H :    0.126547
  14 H :    0.148546
  15 H :    0.135170

  Mayer bond orders larger than 0.1
B(  0-O ,  1-C ) :   2.0005 B(  1-C ,  2-C ) :   0.8436 B(  1-C ,  9-H ) :   0.9389
B(  2-C ,  3-C ) :   0.9299 B(  2-C ,  7-C ) :   0.8923 B(  2-C , 10-H ) :   0.8569
B(  3-C ,  4-C ) :   1.6139 B(  3-C , 11-H ) :   0.9341 B(  4-C ,  5-C ) :   0.9393
B(  4-C ,  8-C ) :   0.8905 B(  5-C ,  6-N ) :   0.8708 B(  5-C , 12-H ) :   0.9183
B(  5-C , 13-H ) :   0.9180 B(  6-N ,  7-C ) :   0.9324 B(  6-N ,  8-C ) :   0.8196
B(  7-C ,  8-C ) :   0.9159 B(  7-C , 14-H ) :   0.9106 B(  8-C , 15-H ) :   0.8903

MP2 TOTAL ENERGY:     -399.925817045 Eh
FINAL SINGLE POINT ENERGY      -399.925817044828

DIPOLE MOMENT
-------------
                                X             Y             Z
Electronic contribution:     -0.36385      -1.46999      -1.02656
Nuclear contribution   :      0.97574       1.48549       1.57543
                        -----------------------------------------
Total Dipole Moment    :      0.61190       0.01550       0.54887
                        -----------------------------------------
Magnitude (a.u.)       :      0.82214
Magnitude (Debye)      :      2.08972

                             ****ORCA TERMINATED NORMALLY****
TOTAL RUN TIME: 0 days 0 hours 18 minutes 29 seconds 573 msec
