                         Program Version 3.0.3 - RELEASE   -
|  1> ! RI-MP2 RIJK def2-TZVP def2-TZVP/C def2-TZVP/JK TIGHTSCF
|  2> % maxcore 2000
|  3> % mp2 density relaxed end
|  4> *xyz 0 1
|  5>  C        0.1179499168     1.3525521192     0.3802041542
|  6>  C        0.0514430608    -0.1389074457     0.1017706918
|  7>  O        1.0457843086    -0.8257942322     0.0717801661
|  8>  C       -1.3513561369    -0.7250912302    -0.1328590668
|  9>  C       -1.3256662380    -2.1888227681    -0.6390948655
| 10>  C       -1.6439248933    -3.0745689151     0.5945310818
| 11>  C       -2.2283528682    -2.0978680064     1.5841020204
| 12>  C       -2.0898039012    -0.8324804133     1.1937358145
| 13>  H        1.1399836024     1.6396715002     0.6299119857
| 14>  H       -0.2103917213     1.9084896807    -0.5059936690
| 15>  H       -0.5567212827     1.6304887373     1.1964848837
| 16>  H       -1.8764858942    -0.0505566894    -0.8225895174
| 17>  H       -2.0996042624    -2.3195552034    -1.4002947824
| 18>  H       -0.3611804225    -2.4318850891    -1.0862046734
| 19>  H       -2.3345074954    -3.8908409542     0.3536953595
| 20>  H       -0.7408119882    -3.5452708374     1.0042052961
| 21>  H       -2.6903569608    -2.4107495335     2.5143931955
| 22>  H       -2.4179364635     0.0375442307     1.7513158751
| 23> *
| 24>
| 25>                          ****END OF INPUT****

CARTESIAN COORDINATES (ANGSTROEM)
---------------------------------
  C      0.117950    1.352552    0.380204
  C      0.051443   -0.138907    0.101771
  O      1.045784   -0.825794    0.071780
  C     -1.351356   -0.725091   -0.132859
  C     -1.325666   -2.188823   -0.639095
  C     -1.643925   -3.074569    0.594531
  C     -2.228353   -2.097868    1.584102
  C     -2.089804   -0.832480    1.193736
  H      1.139984    1.639672    0.629912
  H     -0.210392    1.908490   -0.505994
  H     -0.556721    1.630489    1.196485
  H     -1.876486   -0.050557   -0.822590
  H     -2.099604   -2.319555   -1.400295
  H     -0.361180   -2.431885   -1.086205
  H     -2.334507   -3.890841    0.353695
  H     -0.740812   -3.545271    1.004205
  H     -2.690357   -2.410750    2.514393
  H     -2.417936    0.037544    1.751316

 Total Charge           Charge          ....    0
 Multiplicity           Mult            ....    1
 Number of Electrons    NEL             ....   60
 Basis Dimension        Dim             ....  308

ORBITAL ENERGIES
----------------

  NO   OCC          E(Eh)            E(eV)
   0   2.0000     -20.540617      -558.9386
   1   2.0000     -11.326881      -308.2201
   2   2.0000     -11.243401      -305.9485
   3   2.0000     -11.233912      -305.6903
   4   2.0000     -11.233668      -305.6836
   5   2.0000     -11.232035      -305.6392
   6   2.0000     -11.225200      -305.4532
   7   2.0000     -11.220785      -305.3331
   8   2.0000      -1.385649       -37.7054
   9   2.0000      -1.140951       -31.0468
  10   2.0000      -1.024532       -27.8789
  11   2.0000      -0.973404       -26.4877
  12   2.0000      -0.960877       -26.1468
  13   2.0000      -0.818437       -22.2708
  14   2.0000      -0.748356       -20.3638
  15   2.0000      -0.715125       -19.4595
  16   2.0000      -0.684902       -18.6371
  17   2.0000      -0.665347       -18.1050
  18   2.0000      -0.613949       -16.7064
  19   2.0000      -0.602831       -16.4039
  20   2.0000      -0.595843       -16.2137
  21   2.0000      -0.552689       -15.0394
  22   2.0000      -0.542907       -14.7733
  23   2.0000      -0.514803       -14.0085
  24   2.0000      -0.498776       -13.5724
  25   2.0000      -0.490086       -13.3359
  26   2.0000      -0.483116       -13.1463
  27   2.0000      -0.473781       -12.8922
  28   2.0000      -0.419732       -11.4215
  29   2.0000      -0.348895        -9.4939
  30   0.0000       0.126937         3.4541
  31   0.0000       0.139624         3.7994
  32   0.0000       0.156654         4.2628
  33   0.0000       0.163961         4.4616
  34   0.0000       0.177152         4.8205

MULLIKEN ATOMIC CHARGES
-----------------------
   0 C :   -0.424987
   1 C :    0.196944
   2 O :   -0.295184
   3 C :    0.031902
   4 C :   -0.249118
   5 C :   -0.179888
   6 C :   -0.171686
   7 C :   -0.236097
   8 H :    0.153092
   9 H :    0.143903
  10 H :    0.144393
  11 H :    0.118635
  12 H :    0.118400
  13 H :    0.145009
  14 H :    0.117645
  15 H :    0.123699
  16 H :    0.129552
  17 H :    0.133787
Sum of atomic charges:   -0.0000000

LOEWDIN ATOMIC CHARGES
----------------------
   0 C :   -0.278314
   1 C :   -0.320667
   2 O :    0.151827
   3 C :   -0.208268
   4 C :   -0.208684
   5 C :   -0.238363
   6 C :   -0.151398
   7 C :   -0.144945
   8 H :    0.132915
   9 H :    0.137567
  10 H :    0.134571
  11 H :    0.158833
  12 H :    0.137388
  13 H :    0.142451
  14 H :    0.136154
  15 H :    0.144063
  16 H :    0.137866
  17 H :    0.137002

  Mayer bond orders larger than 0.1
B(  0-C ,  1-C ) :   0.9176 B(  0-C ,  8-H ) :   0.9380 B(  0-C ,  9-H ) :   0.9143
B(  0-C , 10-H ) :   0.9189 B(  1-C ,  2-O ) :   1.9974 B(  1-C ,  3-C ) :   0.8507
B(  3-C ,  4-C ) :   0.8956 B(  3-C ,  7-C ) :   0.8766 B(  3-C , 11-H ) :   0.9095
B(  4-C ,  5-C ) :   0.9737 B(  4-C , 12-H ) :   0.9298 B(  4-C , 13-H ) :   0.9301
B(  5-C ,  6-C ) :   0.9430 B(  5-C , 14-H ) :   0.9312 B(  5-C , 15-H ) :   0.9033
B(  6-C ,  7-C ) :   1.8030 B(  6-C , 16-H ) :   0.9269 B(  7-C , 17-H ) :   0.9167

MP2 TOTAL ENERGY:     -347.223724111 Eh
FINAL SINGLE POINT ENERGY      -347.223724110695

DIPOLE MOMENT
-------------
                                X             Y             Z
Electronic contribution:      2.27271      -0.51442       0.18199
Nuclear contribution   :     -3.08643       0.97082      -0.15736
                        -----------------------------------------
Total Dipole Moment    :     -0.81373       0.45640       0.02463
                        -----------------------------------------
Magnitude (a.u.)       :      0.93330
Magnitude (Debye)      :      2.37227

                             ****ORCA TERMINATED NORMALLY****
TOTAL RUN TIME: 0 days 0 hours 13 minutes 12 seconds 65 msec
