                         Program Version 3.0.3 - RELEASE   -
|  1> ! RI-MP2 RIJK def2-TZVP def2-TZVP/C def2-TZVP/JK TIGHTSCF
|  2> % maxcore 2000
|  3> % mp2 density relaxed end
|  4> *xyz 0 1
|  5>  C       -0.6553119046     0.7092759832     0.1425170953
|  6>  O        0.6931173782     0.7061850522    -0.3366304039
|  7>  C        1.0276304142    -0.2835437935    -1.1826681408
|  8>  C        0.6766493129    -1.6188594241    -1.3271266369
|  9>  N       -0.2670518191    -2.3369918563    -0.5353201688
| 10>  C        1.4801664521    -2.0721122350    -2.4122210611
| 11>  C        1.5041006519    -3.4435785757    -3.0070753809
| 12>  N        2.2621246103    -1.1095052652    -2.8877318549
| 13>  N        1.9677662517    -0.0278278810    -2.1223994157
| 14>  H       -1.3573349275     0.8397207605    -0.6894017725
| 15>  H       -0.8924083697    -0.2213278960     0.6616136918
| 16>  H       -0.7268180115     1.5611990674     0.8203944071
| 17>  H        0.1962315133    -2.9325689466     0.1451584562
| 18>  H       -0.8372833425    -2.9457411096    -1.1134780232
| 19>  H        0.5407539918    -3.7087919645    -3.4599140308
| 20>  H        2.2693213023    -3.4943630981    -3.7844125254
| 21>  H        1.7251332539    -4.2071481806    -2.2520600990
| 22>  H        2.4403139723     0.8466470029    -2.2725438866
| 23> *
| 24>
| 25>                          ****END OF INPUT****

CARTESIAN COORDINATES (ANGSTROEM)
---------------------------------
  C     -0.655312    0.709276    0.142517
  O      0.693117    0.706185   -0.336630
  C      1.027630   -0.283544   -1.182668
  C      0.676649   -1.618859   -1.327127
  N     -0.267052   -2.336992   -0.535320
  C      1.480166   -2.072112   -2.412221
  C      1.504101   -3.443579   -3.007075
  N      2.262125   -1.109505   -2.887732
  N      1.967766   -0.027828   -2.122399
  H     -1.357335    0.839721   -0.689402
  H     -0.892408   -0.221328    0.661614
  H     -0.726818    1.561199    0.820394
  H      0.196232   -2.932569    0.145158
  H     -0.837283   -2.945741   -1.113478
  H      0.540754   -3.708792   -3.459914
  H      2.269321   -3.494363   -3.784413
  H      1.725133   -4.207148   -2.252060
  H      2.440314    0.846647   -2.272544

 Total Charge           Charge          ....    0
 Multiplicity           Mult            ....    1
 Number of Electrons    NEL             ....   68
 Basis Dimension        Dim             ....  333

ORBITAL ENERGIES
----------------

  NO   OCC          E(Eh)            E(eV)
   0   2.0000     -20.594112      -560.3943
   1   2.0000     -15.616127      -424.9364
   2   2.0000     -15.566897      -423.5968
   3   2.0000     -15.556384      -423.3107
   4   2.0000     -11.326663      -308.2142
   5   2.0000     -11.281432      -306.9834
   6   2.0000     -11.251927      -306.1805
   7   2.0000     -11.237574      -305.7899
   8   2.0000     -11.222506      -305.3799
   9   2.0000      -1.428550       -38.8728
  10   2.0000      -1.348397       -36.6918
  11   2.0000      -1.191831       -32.4314
  12   2.0000      -1.099258       -29.9123
  13   2.0000      -1.019144       -27.7323
  14   2.0000      -0.962032       -26.1782
  15   2.0000      -0.941658       -25.6238
  16   2.0000      -0.788001       -21.4426
  17   2.0000      -0.770496       -20.9663
  18   2.0000      -0.735084       -20.0027
  19   2.0000      -0.676430       -18.4066
  20   2.0000      -0.654661       -17.8142
  21   2.0000      -0.645817       -17.5736
  22   2.0000      -0.640619       -17.4321
  23   2.0000      -0.597785       -16.2666
  24   2.0000      -0.591053       -16.0834
  25   2.0000      -0.556204       -15.1351
  26   2.0000      -0.551721       -15.0131
  27   2.0000      -0.538200       -14.6452
  28   2.0000      -0.519545       -14.1375
  29   2.0000      -0.489288       -13.3142
  30   2.0000      -0.469357       -12.7718
  31   2.0000      -0.403768       -10.9871
  32   2.0000      -0.343440        -9.3455
  33   2.0000      -0.314708        -8.5636
  34   0.0000       0.121747         3.3129
  35   0.0000       0.154012         4.1909
  36   0.0000       0.163403         4.4464
  37   0.0000       0.175587         4.7780
  38   0.0000       0.186764         5.0821

MULLIKEN ATOMIC CHARGES
-----------------------
   0 C :   -0.189767
   1 O :   -0.304250
   2 C :    0.170781
   3 C :    0.038643
   4 N :   -0.579745
   5 C :    0.066756
   6 C :   -0.459951
   7 N :   -0.212382
   8 N :   -0.115123
   9 H :    0.119513
  10 H :    0.151515
  11 H :    0.141055
  12 H :    0.249719
  13 H :    0.247268
  14 H :    0.132074
  15 H :    0.157549
  16 H :    0.131289
  17 H :    0.255054
Sum of atomic charges:    0.0000000

LOEWDIN ATOMIC CHARGES
----------------------
   0 C :   -0.308761
   1 O :    0.216035
   2 C :   -0.348018
   3 C :   -0.269450
   4 N :   -0.120144
   5 C :   -0.303671
   6 C :   -0.283122
   7 N :    0.035214
   8 N :    0.139984
   9 H :    0.109162
  10 H :    0.112722
  11 H :    0.113027
  12 H :    0.163690
  13 H :    0.162695
  14 H :    0.127361
  15 H :    0.137423
  16 H :    0.127603
  17 H :    0.188249

  Mayer bond orders larger than 0.1
B(  0-C ,  1-O ) :   0.8409 B(  0-C ,  9-H ) :   0.9354 B(  0-C , 10-H ) :   0.9307
B(  0-C , 11-H ) :   0.9364 B(  1-O ,  2-C ) :   1.1230 B(  2-C ,  3-C ) :   1.4032
B(  2-C ,  7-N ) :   0.1129 B(  2-C ,  8-N ) :   1.2275 B(  3-C ,  4-N ) :   0.9751
B(  3-C ,  5-C ) :   1.2052 B(  4-N , 12-H ) :   0.8869 B(  4-N , 13-H ) :   0.8971
B(  5-C ,  6-C ) :   0.8652 B(  5-C ,  7-N ) :   1.6285 B(  6-C , 14-H ) :   0.9353
B(  6-C , 15-H ) :   0.9488 B(  6-C , 16-H ) :   0.9364 B(  7-N ,  8-N ) :   1.0091
B(  8-N , 17-H ) :   0.8670

MP2 TOTAL ENERGY:     -434.549222346 Eh
FINAL SINGLE POINT ENERGY      -434.549222345823

DIPOLE MOMENT
-------------
                                X             Y             Z
Electronic contribution:      4.06932       4.47968      -0.82500
Nuclear contribution   :     -4.71113      -4.56943       1.33101
                        -----------------------------------------
Total Dipole Moment    :     -0.64181      -0.08975       0.50601
                        -----------------------------------------
Magnitude (a.u.)       :      0.82221
Magnitude (Debye)      :      2.08988

                             ****ORCA TERMINATED NORMALLY****
TOTAL RUN TIME: 0 days 0 hours 17 minutes 49 seconds 755 msec
