                         Program Version 3.0.3 - RELEASE   -
|  1> ! RI-MP2 RIJK def2-TZVP def2-TZVP/C def2-TZVP/JK TIGHTSCF
|  2> % maxcore 2000
|  3> % mp2 density relaxed end
|  4> *xyz 0 1
|  5>  C        0.0589488428     1.3802570669    -0.1066867678
|  6>  C        1.5539311685     1.8019393728     0.0778768434
|  7>  N        2.0404386523     0.5898480931     0.6911303454
|  8>  N        3.2358071952     0.1326122650     1.1647707113
|  9>  C        2.9458265433    -1.1466468981     1.3577703066
| 10>  N        1.6722515494    -1.5538472527     1.0244036629
| 11>  C        1.1687027425    -0.4223417423     0.6030265839
| 12>  O       -0.0072556475    -0.0652472265     0.0660508147
| 13>  H       -0.5779525316     1.8373895946     0.6555762301
| 14>  H       -0.3325653571     1.6155009332    -1.0965231473
| 15>  H        2.0609118976     2.0039202763    -0.8720129655
| 16>  H        1.6568385470     2.6741843363     0.7274960539
| 17>  H        3.6773301877    -1.8297881786     1.7631960683
| 18> *
| 19>
| 20>                          ****END OF INPUT****

CARTESIAN COORDINATES (ANGSTROEM)
---------------------------------
  C      0.058949    1.380257   -0.106687
  C      1.553931    1.801939    0.077877
  N      2.040439    0.589848    0.691130
  N      3.235807    0.132612    1.164771
  C      2.945827   -1.146647    1.357770
  N      1.672252   -1.553847    1.024404
  C      1.168703   -0.422342    0.603027
  O     -0.007256   -0.065247    0.066051
  H     -0.577953    1.837390    0.655576
  H     -0.332565    1.615501   -1.096523
  H      2.060912    2.003920   -0.872013
  H      1.656839    2.674184    0.727496
  H      3.677330   -1.829788    1.763196

 Total Charge           Charge          ....    0
 Multiplicity           Mult            ....    1
 Number of Electrons    NEL             ....   58
 Basis Dimension        Dim             ....  278

ORBITAL ENERGIES
----------------

  NO   OCC          E(Eh)            E(eV)
   0   2.0000     -20.624303      -561.2158
   1   2.0000     -15.640492      -425.5994
   2   2.0000     -15.592765      -424.3007
   3   2.0000     -15.553690      -423.2374
   4   2.0000     -11.370068      -309.3953
   5   2.0000     -11.329122      -308.2811
   6   2.0000     -11.309788      -307.7550
   7   2.0000     -11.294973      -307.3519
   8   2.0000      -1.481895       -40.3244
   9   2.0000      -1.388855       -37.7927
  10   2.0000      -1.219313       -33.1792
  11   2.0000      -1.131492       -30.7895
  12   2.0000      -1.036745       -28.2113
  13   2.0000      -0.901989       -24.5444
  14   2.0000      -0.852630       -23.2012
  15   2.0000      -0.811766       -22.0893
  16   2.0000      -0.736765       -20.0484
  17   2.0000      -0.700288       -19.0558
  18   2.0000      -0.661580       -18.0025
  19   2.0000      -0.648163       -17.6374
  20   2.0000      -0.629827       -17.1385
  21   2.0000      -0.614153       -16.7120
  22   2.0000      -0.586895       -15.9702
  23   2.0000      -0.543657       -14.7937
  24   2.0000      -0.509951       -13.8765
  25   2.0000      -0.494223       -13.4485
  26   2.0000      -0.453227       -12.3329
  27   2.0000      -0.411376       -11.1941
  28   2.0000      -0.353496        -9.6191
  29   0.0000       0.123625         3.3640
  30   0.0000       0.147481         4.0132
  31   0.0000       0.164430         4.4744
  32   0.0000       0.167130         4.5478
  33   0.0000       0.189039         5.1440

MULLIKEN ATOMIC CHARGES
-----------------------
   0 C :   -0.038416
   1 C :   -0.180447
   2 N :    0.066028
   3 N :   -0.279780
   4 C :    0.038184
   5 N :   -0.298178
   6 C :    0.250893
   7 O :   -0.260441
   8 H :    0.128513
   9 H :    0.138691
  10 H :    0.139538
  11 H :    0.152859
  12 H :    0.142553
Sum of atomic charges:   -0.0000000

LOEWDIN ATOMIC CHARGES
----------------------
   0 C :   -0.221376
   1 C :   -0.224480
   2 N :    0.185903
   3 N :    0.027420
   4 C :   -0.330268
   5 N :    0.089984
   6 C :   -0.444948
   7 O :    0.247540
   8 H :    0.130797
   9 H :    0.131826
  10 H :    0.137006
  11 H :    0.140246
  12 H :    0.130349

  Mayer bond orders larger than 0.1
B(  0-C ,  1-C ) :   0.9358 B(  0-C ,  7-O ) :   0.8650 B(  0-C ,  8-H ) :   0.9260
B(  0-C ,  9-H ) :   0.9277 B(  1-C ,  2-N ) :   0.8757 B(  1-C , 10-H ) :   0.9181
B(  1-C , 11-H ) :   0.9231 B(  2-N ,  3-N ) :   0.9658 B(  2-N ,  6-C ) :   1.2233
B(  3-N ,  4-C ) :   1.5309 B(  4-C ,  5-N ) :   1.2394 B(  4-C , 12-H ) :   0.9351
B(  5-N ,  6-C ) :   1.5828 B(  6-C ,  7-O ) :   1.0908

MP2 TOTAL ENERGY:     -394.143790006 Eh
FINAL SINGLE POINT ENERGY      -394.143790005937

DIPOLE MOMENT
-------------
                                X             Y             Z
Electronic contribution:      0.72651      -3.73161       1.13738
Nuclear contribution   :     -1.21155       5.35192      -1.67462
                        -----------------------------------------
Total Dipole Moment    :     -0.48503       1.62031      -0.53724
                        -----------------------------------------
Magnitude (a.u.)       :      1.77463
Magnitude (Debye)      :      4.51074

                             ****ORCA TERMINATED NORMALLY****
TOTAL RUN TIME: 0 days 0 hours 10 minutes 12 seconds 102 msec
