                         Program Version 3.0.3 - RELEASE   -
|  1> ! RI-MP2 RIJK def2-TZVP def2-TZVP/C def2-TZVP/JK TIGHTSCF
|  2> % maxcore 2000
|  3> % mp2 density relaxed end
|  4> *xyz 0 1
|  5>  N        0.1939297850     1.5876939939     0.2831038876
|  6>  C       -0.0024069672     0.1745552059    -0.0274340643
|  7>  C       -1.4827364673    -0.1777431595    -0.3080830101
|  8>  C       -1.3534441168    -1.4243108956    -1.1822664312
|  9>  O       -0.1443676623    -1.2268077708    -1.9475071335
| 10>  C        0.6492379644    -0.3031872158    -1.3443546835
| 11>  N        1.7399797248     0.1434910350    -1.7903650506
| 12>  C        0.5211857657    -0.6503684656     1.0665264865
| 13>  C        0.9388726473    -1.3490125293     1.9501627731
| 14>  H        1.1921578836     1.7438194249     0.4044714365
| 15>  H       -0.0608552091     2.1312108077    -0.5390859646
| 16>  H       -2.0594591465    -0.3413363478     0.6018149333
| 17>  H       -1.9376450521     0.6433569071    -0.8721706663
| 18>  H       -1.2445858983    -2.3332892042    -0.5806316991
| 19>  H       -2.1735262059    -1.5593640903    -1.8899845349
| 20>  H        1.9820554156    -0.2934034005    -2.6809259646
| 21>  H        1.3218307590    -1.9547816351     2.7341947558
| 22> *
| 23>
| 24>                          ****END OF INPUT****

CARTESIAN COORDINATES (ANGSTROEM)
---------------------------------
  N      0.193930    1.587694    0.283104
  C     -0.002407    0.174555   -0.027434
  C     -1.482736   -0.177743   -0.308083
  C     -1.353444   -1.424311   -1.182266
  O     -0.144368   -1.226808   -1.947507
  C      0.649238   -0.303187   -1.344355
  N      1.739980    0.143491   -1.790365
  C      0.521186   -0.650368    1.066526
  C      0.938873   -1.349013    1.950163
  H      1.192158    1.743819    0.404471
  H     -0.060855    2.131211   -0.539086
  H     -2.059459   -0.341336    0.601815
  H     -1.937645    0.643357   -0.872171
  H     -1.244586   -2.333289   -0.580632
  H     -2.173526   -1.559364   -1.889985
  H      1.982055   -0.293403   -2.680926
  H      1.321831   -1.954782    2.734195

 Total Charge           Charge          ....    0
 Multiplicity           Mult            ....    1
 Number of Electrons    NEL             ....   66
 Basis Dimension        Dim             ....  327

ORBITAL ENERGIES
----------------

  NO   OCC          E(Eh)            E(eV)
   0   2.0000     -20.601021      -560.5823
   1   2.0000     -15.556901      -423.3248
   2   2.0000     -15.537296      -422.7913
   3   2.0000     -11.341043      -308.6055
   4   2.0000     -11.312355      -307.8248
   5   2.0000     -11.302120      -307.5463
   6   2.0000     -11.252016      -306.1829
   7   2.0000     -11.243144      -305.9415
   8   2.0000     -11.235293      -305.7279
   9   2.0000      -1.437773       -39.1238
  10   2.0000      -1.226329       -33.3701
  11   2.0000      -1.189531       -32.3688
  12   2.0000      -1.074114       -29.2281
  13   2.0000      -1.029998       -28.0277
  14   2.0000      -0.958137       -26.0722
  15   2.0000      -0.859228       -23.3808
  16   2.0000      -0.797949       -21.7133
  17   2.0000      -0.732674       -19.9371
  18   2.0000      -0.707424       -19.2500
  19   2.0000      -0.700348       -19.0574
  20   2.0000      -0.670579       -18.2474
  21   2.0000      -0.661394       -17.9974
  22   2.0000      -0.611963       -16.6523
  23   2.0000      -0.594957       -16.1896
  24   2.0000      -0.565860       -15.3978
  25   2.0000      -0.544795       -14.8246
  26   2.0000      -0.520063       -14.1516
  27   2.0000      -0.507874       -13.8199
  28   2.0000      -0.449913       -12.2428
  29   2.0000      -0.431214       -11.7339
  30   2.0000      -0.405930       -11.0459
  31   2.0000      -0.398009       -10.8304
  32   2.0000      -0.388850       -10.5811
  33   0.0000       0.130540         3.5522
  34   0.0000       0.147972         4.0265
  35   0.0000       0.152390         4.1467
  36   0.0000       0.159247         4.3333
  37   0.0000       0.168351         4.5811

MULLIKEN ATOMIC CHARGES
-----------------------
   0 N :   -0.527125
   1 C :    0.255859
   2 C :   -0.289040
   3 C :   -0.050627
   4 O :   -0.248048
   5 C :    0.061202
   6 N :   -0.383402
   7 C :   -0.116843
   8 C :   -0.133250
   9 H :    0.248922
  10 H :    0.225018
  11 H :    0.157018
  12 H :    0.125921
  13 H :    0.122689
  14 H :    0.130125
  15 H :    0.226295
  16 H :    0.195286
Sum of atomic charges:    0.0000000

LOEWDIN ATOMIC CHARGES
----------------------
   0 N :   -0.094241
   1 C :   -0.319009
   2 C :   -0.196641
   3 C :   -0.256684
   4 O :    0.240743
   5 C :   -0.377926
   6 N :   -0.053252
   7 C :   -0.055637
   8 C :   -0.074226
   9 H :    0.170297
  10 H :    0.161044
  11 H :    0.149813
  12 H :    0.145927
  13 H :    0.130850
  14 H :    0.128939
  15 H :    0.170599
  16 H :    0.129404

  Mayer bond orders larger than 0.1
B(  0-N ,  1-C ) :   0.9128 B(  0-N ,  9-H ) :   0.8823 B(  0-N , 10-H ) :   0.8828
B(  1-C ,  2-C ) :   0.8265 B(  1-C ,  5-C ) :   0.8123 B(  1-C ,  7-C ) :   1.2384
B(  1-C ,  8-C ) :  -0.1118 B(  2-C ,  3-C ) :   0.9624 B(  2-C , 11-H ) :   0.9318
B(  2-C , 12-H ) :   0.9177 B(  3-C ,  4-O ) :   0.8714 B(  3-C , 13-H ) :   0.9206
B(  3-C , 14-H ) :   0.9261 B(  4-O ,  5-C ) :   1.1136 B(  5-C ,  6-N ) :   2.0813
B(  6-N , 15-H ) :   0.8566 B(  7-C ,  8-C ) :   2.5353 B(  8-C , 16-H ) :   0.8824

MP2 TOTAL ENERGY:     -417.275048149 Eh
FINAL SINGLE POINT ENERGY      -417.275048149397

DIPOLE MOMENT
-------------
                                X             Y             Z
Electronic contribution:      2.77787      -1.14290      -0.67901
Nuclear contribution   :     -3.57685       0.70669       0.54605
                        -----------------------------------------
Total Dipole Moment    :     -0.79898      -0.43621      -0.13295
                        -----------------------------------------
Magnitude (a.u.)       :      0.91996
Magnitude (Debye)      :      2.33834

                             ****ORCA TERMINATED NORMALLY****
TOTAL RUN TIME: 0 days 0 hours 17 minutes 33 seconds 307 msec
