                         Program Version 3.0.3 - RELEASE   -
|  1> ! RI-MP2 RIJK def2-TZVP def2-TZVP/C def2-TZVP/JK TIGHTSCF
|  2> % maxcore 2000
|  3> % mp2 density relaxed end
|  4> *xyz 0 1
|  5>  O        0.1689207715     1.3900966624     0.2624796212
|  6>  C       -0.0610419037     0.0407476991    -0.0092719961
|  7>  C       -1.4947854876    -0.3035389346    -0.4233692848
|  8>  O       -1.3554797793    -1.5614733820    -1.1076912689
|  9>  C       -0.1962594421    -1.5085364742    -1.9153520448
| 10>  C       -0.4931789454    -1.1197335727    -3.3040874897
| 11>  N       -0.7389928766    -0.8033882730    -4.3874956230
| 12>  C        0.7115544463    -0.4515282567    -1.2312087140
| 13>  O        1.7686422547    -0.0325241962    -1.6061372545
| 14>  H        1.0485124356     1.6039028651    -0.0795253516
| 15>  H        0.2231052704    -0.6084681644     0.8384893115
| 16>  H       -2.1793602320    -0.4682085048     0.4081086151
| 17>  H       -1.8973713741     0.4763100874    -1.0835938233
| 18>  H        0.2866286724    -2.4920627255    -1.9158645172
| 19> *
| 20>
| 21>                          ****END OF INPUT****

CARTESIAN COORDINATES (ANGSTROEM)
---------------------------------
  O      0.168921    1.390097    0.262480
  C     -0.061042    0.040748   -0.009272
  C     -1.494785   -0.303539   -0.423369
  O     -1.355480   -1.561473   -1.107691
  C     -0.196259   -1.508536   -1.915352
  C     -0.493179   -1.119734   -3.304087
  N     -0.738993   -0.803388   -4.387496
  C      0.711554   -0.451528   -1.231209
  O      1.768642   -0.032524   -1.606137
  H      1.048512    1.603903   -0.079525
  H      0.223105   -0.608468    0.838489
  H     -2.179360   -0.468209    0.408109
  H     -1.897371    0.476310   -1.083594
  H      0.286629   -2.492063   -1.915865

 Total Charge           Charge          ....    0
 Multiplicity           Mult            ....    1
 Number of Electrons    NEL             ....   66
 Basis Dimension        Dim             ....  309

ORBITAL ENERGIES
----------------

  NO   OCC          E(Eh)            E(eV)
   0   2.0000     -20.616643      -561.0074
   1   2.0000     -20.606414      -560.7290
   2   2.0000     -20.595927      -560.4437
   3   2.0000     -15.596166      -424.3933
   4   2.0000     -11.382879      -309.7439
   5   2.0000     -11.372045      -309.4491
   6   2.0000     -11.330305      -308.3133
   7   2.0000     -11.320241      -308.0394
   8   2.0000     -11.293955      -307.3241
   9   2.0000      -1.462314       -39.7916
  10   2.0000      -1.436126       -39.0790
  11   2.0000      -1.402999       -38.1775
  12   2.0000      -1.238863       -33.7112
  13   2.0000      -1.070102       -29.1189
  14   2.0000      -1.066621       -29.0242
  15   2.0000      -0.901332       -24.5265
  16   2.0000      -0.826797       -22.4983
  17   2.0000      -0.766664       -20.8620
  18   2.0000      -0.741121       -20.1669
  19   2.0000      -0.732829       -19.9413
  20   2.0000      -0.714782       -19.4502
  21   2.0000      -0.659192       -17.9375
  22   2.0000      -0.639267       -17.3953
  23   2.0000      -0.612255       -16.6603
  24   2.0000      -0.590222       -16.0607
  25   2.0000      -0.583886       -15.8883
  26   2.0000      -0.580900       -15.8071
  27   2.0000      -0.556079       -15.1317
  28   2.0000      -0.514119       -13.9899
  29   2.0000      -0.495684       -13.4882
  30   2.0000      -0.488147       -13.2831
  31   2.0000      -0.474473       -12.9111
  32   2.0000      -0.438983       -11.9453
  33   0.0000       0.083080         2.2607
  34   0.0000       0.123298         3.3551
  35   0.0000       0.136000         3.7007
  36   0.0000       0.152838         4.1589
  37   0.0000       0.154690         4.2093

MULLIKEN ATOMIC CHARGES
-----------------------
   0 O :   -0.460278
   1 C :    0.091509
   2 C :   -0.051705
   3 O :   -0.297761
   4 C :    0.237538
   5 C :   -0.211886
   6 N :   -0.042797
   7 C :    0.092331
   8 O :   -0.245726
   9 H :    0.339284
  10 H :    0.112240
  11 H :    0.146167
  12 H :    0.123161
  13 H :    0.167923
Sum of atomic charges:    0.0000000

LOEWDIN ATOMIC CHARGES
----------------------
   0 O :    0.010528
   1 C :   -0.334001
   2 C :   -0.248786
   3 O :    0.196124
   4 C :   -0.274247
   5 C :   -0.156964
   6 N :    0.089027
   7 C :   -0.273737
   8 O :    0.195960
   9 H :    0.190685
  10 H :    0.156943
  11 H :    0.136041
  12 H :    0.134888
  13 H :    0.177541

  Mayer bond orders larger than 0.1
B(  0-O ,  1-C ) :   1.0438 B(  0-O ,  9-H ) :   0.8174 B(  1-C ,  2-C ) :   0.9103
B(  1-C ,  7-C ) :   0.8971 B(  1-C , 10-H ) :   0.8988 B(  2-C ,  3-O ) :   0.8803
B(  2-C , 11-H ) :   0.9233 B(  2-C , 12-H ) :   0.9081 B(  3-O ,  4-C ) :   0.9612
B(  4-C ,  5-C ) :   0.9115 B(  4-C ,  7-C ) :   0.8465 B(  4-C , 13-H ) :   0.8813
B(  5-C ,  6-N ) :   2.8272 B(  7-C ,  8-O ) :   2.0036

MP2 TOTAL ENERGY:     -473.084734222 Eh
FINAL SINGLE POINT ENERGY      -473.084734222336

DIPOLE MOMENT
-------------
                                X             Y             Z
Electronic contribution:      1.70711      -1.11826      -3.75093
Nuclear contribution   :     -1.53771       0.69094       5.12828
                        -----------------------------------------
Total Dipole Moment    :      0.16939      -0.42732       1.37735
                        -----------------------------------------
Magnitude (a.u.)       :      1.45203
Magnitude (Debye)      :      3.69077

                             ****ORCA TERMINATED NORMALLY****
TOTAL RUN TIME: 0 days 0 hours 13 minutes 48 seconds 131 msec
