                         Program Version 3.0.3 - RELEASE   -
|  1> ! RI-MP2 RIJK def2-TZVP def2-TZVP/C def2-TZVP/JK TIGHTSCF
|  2> % maxcore 2000
|  3> % mp2 density relaxed end
|  4> *xyz 0 1
|  5>  C       -0.0722279224     1.6206892220    -0.1433356592
|  6>  C       -0.2128537615     0.1171192660    -0.0407953982
|  7>  C       -1.6263781058    -0.3971291760     0.1257376951
|  8>  O       -2.2247159884     0.1299514964     1.3177581901
|  9>  C       -2.0674016717    -0.5857340084     2.4532950240
| 10>  O       -2.4525580277    -0.1918218557     3.5127937250
| 11>  C        0.7781336767    -0.7642755289    -0.7098169710
| 12>  N        0.7593613594    -0.6491738803     0.7609007639
| 13>  H        0.9783693698     1.9091111825    -0.2473502190
| 14>  H       -0.6145107361     2.0081950310    -1.0129658461
| 15>  H       -0.4801791713     2.1077407868     0.7472989766
| 16>  H       -2.2682227981    -0.0696984372    -0.6969943482
| 17>  H       -1.6247951636    -1.4923696354     0.1569011103
| 18>  H       -1.5641240325    -1.5544002595     2.2837877665
| 19>  H        0.4848568059    -1.7368795171    -1.0966888870
| 20>  H        1.5834643606    -0.2868061940    -1.2617562356
| 21>  H        1.5114540567    -0.0403068522     1.0739964728
| 22> *
| 23>
| 24>                          ****END OF INPUT****

CARTESIAN COORDINATES (ANGSTROEM)
---------------------------------
  C     -0.072228    1.620689   -0.143336
  C     -0.212854    0.117119   -0.040795
  C     -1.626378   -0.397129    0.125738
  O     -2.224716    0.129951    1.317758
  C     -2.067402   -0.585734    2.453295
  O     -2.452558   -0.191822    3.512794
  C      0.778134   -0.764276   -0.709817
  N      0.759361   -0.649174    0.760901
  H      0.978369    1.909111   -0.247350
  H     -0.614511    2.008195   -1.012966
  H     -0.480179    2.107741    0.747299
  H     -2.268223   -0.069698   -0.696994
  H     -1.624795   -1.492370    0.156901
  H     -1.564124   -1.554400    2.283788
  H      0.484857   -1.736880   -1.096689
  H      1.583464   -0.286806   -1.261756
  H      1.511454   -0.040307    1.073996

 Total Charge           Charge          ....    0
 Multiplicity           Mult            ....    1
 Number of Electrons    NEL             ....   62
 Basis Dimension        Dim             ....  302

ORBITAL ENERGIES
----------------

  NO   OCC          E(Eh)            E(eV)
   0   2.0000     -20.603079      -560.6383
   1   2.0000     -20.542595      -558.9924
   2   2.0000     -15.574211      -423.7958
   3   2.0000     -11.374223      -309.5083
   4   2.0000     -11.305994      -307.6517
   5   2.0000     -11.285224      -307.0866
   6   2.0000     -11.273384      -306.7644
   7   2.0000     -11.237202      -305.7798
   8   2.0000      -1.455492       -39.6060
   9   2.0000      -1.366392       -37.1814
  10   2.0000      -1.282354       -34.8946
  11   2.0000      -1.033848       -28.1324
  12   2.0000      -0.969300       -26.3760
  13   2.0000      -0.901748       -24.5378
  14   2.0000      -0.847208       -23.0537
  15   2.0000      -0.793147       -21.5826
  16   2.0000      -0.716922       -19.5084
  17   2.0000      -0.694187       -18.8898
  18   2.0000      -0.682132       -18.5618
  19   2.0000      -0.668195       -18.1825
  20   2.0000      -0.617663       -16.8075
  21   2.0000      -0.594498       -16.1771
  22   2.0000      -0.576066       -15.6755
  23   2.0000      -0.565160       -15.3788
  24   2.0000      -0.541114       -14.7245
  25   2.0000      -0.525220       -14.2920
  26   2.0000      -0.488956       -13.3052
  27   2.0000      -0.484107       -13.1732
  28   2.0000      -0.456707       -12.4276
  29   2.0000      -0.448032       -12.1916
  30   2.0000      -0.405118       -11.0238
  31   0.0000       0.125300         3.4096
  32   0.0000       0.142256         3.8710
  33   0.0000       0.162988         4.4351
  34   0.0000       0.172419         4.6918
  35   0.0000       0.173843         4.7305

MULLIKEN ATOMIC CHARGES
-----------------------
   0 C :   -0.400530
   1 C :    0.102350
   2 C :   -0.077099
   3 O :   -0.229253
   4 C :    0.203760
   5 O :   -0.277176
   6 C :   -0.205764
   7 N :   -0.392098
   8 H :    0.124976
   9 H :    0.135211
  10 H :    0.166428
  11 H :    0.133997
  12 H :    0.138603
  13 H :    0.092352
  14 H :    0.125380
  15 H :    0.134624
  16 H :    0.224239
Sum of atomic charges:   -0.0000000

LOEWDIN ATOMIC CHARGES
----------------------
   0 C :   -0.269871
   1 C :   -0.347303
   2 C :   -0.255342
   3 O :    0.240125
   4 C :   -0.446530
   5 O :    0.116100
   6 C :   -0.241742
   7 N :    0.004529
   8 H :    0.127880
   9 H :    0.132704
  10 H :    0.136105
  11 H :    0.138746
  12 H :    0.136180
  13 H :    0.107254
  14 H :    0.126881
  15 H :    0.125812
  16 H :    0.168470

  Mayer bond orders larger than 0.1
B(  0-C ,  1-C ) :   0.9476 B(  0-C ,  8-H ) :   0.9239 B(  0-C ,  9-H ) :   0.9290
B(  0-C , 10-H ) :   0.9323 B(  1-C ,  2-C ) :   0.9034 B(  1-C ,  6-C ) :   0.9310
B(  1-C ,  7-N ) :   0.8416 B(  2-C ,  3-O ) :   0.8428 B(  2-C , 11-H ) :   0.9308
B(  2-C , 12-H ) :   0.9459 B(  3-O ,  4-C ) :   1.0537 B(  4-C ,  5-O ) :   2.0158
B(  4-C , 13-H ) :   0.9149 B(  6-C ,  7-N ) :   0.9436 B(  6-C , 14-H ) :   0.9061
B(  6-C , 15-H ) :   0.9226 B(  7-N , 16-H ) :   0.8691

MP2 TOTAL ENERGY:     -400.346994971 Eh
FINAL SINGLE POINT ENERGY      -400.346994971265

DIPOLE MOMENT
-------------
                                X             Y             Z
Electronic contribution:     -4.83586      -1.56499       6.21272
Nuclear contribution   :      5.77124       1.47597      -7.93764
                        -----------------------------------------
Total Dipole Moment    :      0.93539      -0.08902      -1.72492
                        -----------------------------------------
Magnitude (a.u.)       :      1.96424
Magnitude (Debye)      :      4.99270

                             ****ORCA TERMINATED NORMALLY****
TOTAL RUN TIME: 0 days 0 hours 12 minutes 29 seconds 14 msec
