                         Program Version 3.0.3 - RELEASE   -
|  1> ! RI-MP2 RIJK def2-TZVP def2-TZVP/C def2-TZVP/JK TIGHTSCF
|  2> % maxcore 2000
|  3> % mp2 density relaxed end
|  4> *xyz 0 1
|  5>  C        0.1250265451     1.4448998980     0.0887541535
|  6>  C        0.0168039107    -0.0286384671    -0.0677035751
|  7>  N       -0.3110140014    -0.7059159479    -1.1209380780
|  8>  C       -0.2550961632    -2.0367072775    -0.7198931340
|  9>  C        0.1106377344    -2.1030659025     0.5807292163
| 10>  O        0.2915161639    -0.8020353818     1.0203893812
| 11>  N        0.3077957393    -3.1732001235     1.4399976897
| 12>  C        1.3714085336    -3.0830769565     2.4534641091
| 13>  C       -0.0563590642    -3.0212602819     2.8580296132
| 14>  H        1.1388696413     1.7402112404     0.3792934973
| 15>  H       -0.1239269528     1.9170993645    -0.8618723582
| 16>  H       -0.5589790471     1.8137784447     0.8604866367
| 17>  H       -0.4797627634    -2.8516190421    -1.3880231548
| 18>  H        1.9423625426    -3.9960163257     2.5925356298
| 19>  H        1.9430297836    -2.1610102645     2.4984038282
| 20>  H       -0.4438668011    -2.0576684240     3.1747418216
| 21>  H       -0.5408408112    -3.8885039826     3.2961544835
| 22> *
| 23>
| 24>                          ****END OF INPUT****

CARTESIAN COORDINATES (ANGSTROEM)
---------------------------------
  C      0.125027    1.444900    0.088754
  C      0.016804   -0.028638   -0.067704
  N     -0.311014   -0.705916   -1.120938
  C     -0.255096   -2.036707   -0.719893
  C      0.110638   -2.103066    0.580729
  O      0.291516   -0.802035    1.020389
  N      0.307796   -3.173200    1.439998
  C      1.371409   -3.083077    2.453464
  C     -0.056359   -3.021260    2.858030
  H      1.138870    1.740211    0.379293
  H     -0.123927    1.917099   -0.861872
  H     -0.558979    1.813778    0.860487
  H     -0.479763   -2.851619   -1.388023
  H      1.942363   -3.996016    2.592536
  H      1.943030   -2.161010    2.498404
  H     -0.443867   -2.057668    3.174742
  H     -0.540841   -3.888504    3.296154

 Total Charge           Charge          ....    0
 Multiplicity           Mult            ....    1
 Number of Electrons    NEL             ....   66
 Basis Dimension        Dim             ....  327

ORBITAL ENERGIES
----------------

  NO   OCC          E(Eh)            E(eV)
   0   2.0000     -20.627303      -561.2974
   1   2.0000     -15.584234      -424.0686
   2   2.0000     -15.552687      -423.2101
   3   2.0000     -11.330804      -308.3269
   4   2.0000     -11.315717      -307.9163
   5   2.0000     -11.271678      -306.7180
   6   2.0000     -11.270943      -306.6979
   7   2.0000     -11.244618      -305.9816
   8   2.0000     -11.241920      -305.9082
   9   2.0000      -1.478175       -40.2232
  10   2.0000      -1.292830       -35.1797
  11   2.0000      -1.221716       -33.2446
  12   2.0000      -1.067279       -29.0421
  13   2.0000      -0.991499       -26.9801
  14   2.0000      -0.901470       -24.5302
  15   2.0000      -0.856989       -23.3198
  16   2.0000      -0.820159       -22.3176
  17   2.0000      -0.778472       -21.1833
  18   2.0000      -0.724909       -19.7258
  19   2.0000      -0.669567       -18.2199
  20   2.0000      -0.666784       -18.1441
  21   2.0000      -0.652213       -17.7476
  22   2.0000      -0.577443       -15.7130
  23   2.0000      -0.577018       -15.7015
  24   2.0000      -0.573794       -15.6137
  25   2.0000      -0.556157       -15.1338
  26   2.0000      -0.541892       -14.7456
  27   2.0000      -0.518644       -14.1130
  28   2.0000      -0.502111       -13.6631
  29   2.0000      -0.454357       -12.3637
  30   2.0000      -0.445746       -12.1294
  31   2.0000      -0.406956       -11.0738
  32   2.0000      -0.313677        -8.5356
  33   0.0000       0.138989         3.7821
  34   0.0000       0.148076         4.0294
  35   0.0000       0.164115         4.4658
  36   0.0000       0.176777         4.8103
  37   0.0000       0.184355         5.0166

MULLIKEN ATOMIC CHARGES
-----------------------
   0 C :   -0.420645
   1 C :    0.268723
   2 N :   -0.270145
   3 C :   -0.151757
   4 C :    0.212170
   5 O :   -0.243125
   6 N :   -0.226526
   7 C :   -0.165636
   8 C :   -0.165640
   9 H :    0.147326
  10 H :    0.165727
  11 H :    0.147327
  12 H :    0.138827
  13 H :    0.138094
  14 H :    0.143592
  15 H :    0.143593
  16 H :    0.138093
Sum of atomic charges:   -0.0000000

LOEWDIN ATOMIC CHARGES
----------------------
   0 C :   -0.271276
   1 C :   -0.368466
   2 N :    0.114596
   3 C :   -0.221339
   4 C :   -0.327828
   5 O :    0.342084
   6 N :    0.141042
   7 C :   -0.238632
   8 C :   -0.238632
   9 H :    0.136039
  10 H :    0.144244
  11 H :    0.136042
  12 H :    0.140072
  13 H :    0.127251
  14 H :    0.128777
  15 H :    0.128777
  16 H :    0.127250

  Mayer bond orders larger than 0.1
B(  0-C ,  1-C ) :   0.8677 B(  0-C ,  9-H ) :   0.9293 B(  0-C , 10-H ) :   0.9488
B(  0-C , 11-H ) :   0.9293 B(  1-C ,  2-N ) :   1.6839 B(  1-C ,  5-O ) :   1.0593
B(  2-N ,  3-C ) :   1.1859 B(  3-C ,  4-C ) :   1.5825 B(  3-C , 12-H ) :   0.9368
B(  4-C ,  5-O ) :   0.9709 B(  4-C ,  6-N ) :   1.1243 B(  6-N ,  7-C ) :   0.8458
B(  6-N ,  8-C ) :   0.8458 B(  7-C ,  8-C ) :   0.9394 B(  7-C , 13-H ) :   0.9260
B(  7-C , 14-H ) :   0.9216 B(  8-C , 15-H ) :   0.9216 B(  8-C , 16-H ) :   0.9260

MP2 TOTAL ENERGY:     -417.297609866 Eh
FINAL SINGLE POINT ENERGY      -417.297609866239

DIPOLE MOMENT
-------------
                                X             Y             Z
Electronic contribution:     -0.98079      -1.95445      -3.16188
Nuclear contribution   :      1.29089       2.15646       4.22529
                        -----------------------------------------
Total Dipole Moment    :      0.31009       0.20201       1.06342
                        -----------------------------------------
Magnitude (a.u.)       :      1.12598
Magnitude (Debye)      :      2.86200

                             ****ORCA TERMINATED NORMALLY****
TOTAL RUN TIME: 0 days 0 hours 15 minutes 48 seconds 603 msec
