                         Program Version 3.0.3 - RELEASE   -
|  1> ! RI-MP2 RIJK def2-TZVP def2-TZVP/C def2-TZVP/JK TIGHTSCF
|  2> % maxcore 2000
|  3> % mp2 density relaxed end
|  4> *xyz 0 1
|  5>  C       -0.2830680819     1.5889490832    -0.0695922433
|  6>  C        0.1184058873     0.1088185063    -0.0125359038
|  7>  O        0.9578477560    -0.1898553436     1.0894767510
|  8>  C       -1.0879210008    -0.7496695836     0.0256848765
|  9>  N       -2.0262402621    -1.4209225100     0.0949386337
| 10>  C        0.9116370782    -0.2811341890    -1.2917418132
| 11>  O        0.5870739586     0.1506597065    -2.3712509744
| 12>  C        2.0831582274    -1.2306481408    -1.1497101778
| 13>  O        2.6586954786    -1.5114974113    -2.3895775976
| 14>  H        0.6217278779     2.2008203370    -0.0401401032
| 15>  H       -0.8260090731     1.7946653193    -0.9933026540
| 16>  H       -0.9168082957     1.8431582977     0.7842113940
| 17>  H        0.4631220674    -0.0474118267     1.9041497185
| 18>  H        2.8102712232    -0.7793226274    -0.4587854595
| 19>  H        1.7208462001    -2.1424646754    -0.6472742443
| 20>  H        2.1312550890    -1.0338598722    -3.0471890527
| 21> *
| 22>
| 23>                          ****END OF INPUT****

CARTESIAN COORDINATES (ANGSTROEM)
---------------------------------
  C     -0.283068    1.588949   -0.069592
  C      0.118406    0.108819   -0.012536
  O      0.957848   -0.189855    1.089477
  C     -1.087921   -0.749670    0.025685
  N     -2.026240   -1.420923    0.094939
  C      0.911637   -0.281134   -1.291742
  O      0.587074    0.150660   -2.371251
  C      2.083158   -1.230648   -1.149710
  O      2.658695   -1.511497   -2.389578
  H      0.621728    2.200820   -0.040140
  H     -0.826009    1.794665   -0.993303
  H     -0.916808    1.843158    0.784211
  H      0.463122   -0.047412    1.904150
  H      2.810271   -0.779323   -0.458785
  H      1.720846   -2.142465   -0.647274
  H      2.131255   -1.033860   -3.047189

 Total Charge           Charge          ....    0
 Multiplicity           Mult            ....    1
 Number of Electrons    NEL             ....   68
 Basis Dimension        Dim             ....  321

ORBITAL ENERGIES
----------------

  NO   OCC          E(Eh)            E(eV)
   0   2.0000     -20.618247      -561.0510
   1   2.0000     -20.592972      -560.3632
   2   2.0000     -20.567049      -559.6579
   3   2.0000     -15.601364      -424.5347
   4   2.0000     -11.379995      -309.6654
   5   2.0000     -11.374081      -309.5045
   6   2.0000     -11.305485      -307.6379
   7   2.0000     -11.297280      -307.4146
   8   2.0000     -11.264480      -306.5221
   9   2.0000      -1.449360       -39.4391
  10   2.0000      -1.428043       -38.8590
  11   2.0000      -1.374857       -37.4118
  12   2.0000      -1.244238       -33.8574
  13   2.0000      -1.098342       -29.8874
  14   2.0000      -1.011099       -27.5134
  15   2.0000      -0.933550       -25.4032
  16   2.0000      -0.822707       -22.3870
  17   2.0000      -0.775545       -21.1036
  18   2.0000      -0.747609       -20.3435
  19   2.0000      -0.702031       -19.1032
  20   2.0000      -0.673827       -18.3358
  21   2.0000      -0.661023       -17.9874
  22   2.0000      -0.622417       -16.9368
  23   2.0000      -0.618113       -16.8197
  24   2.0000      -0.600351       -16.3364
  25   2.0000      -0.590120       -16.0580
  26   2.0000      -0.573135       -15.5958
  27   2.0000      -0.556976       -15.1561
  28   2.0000      -0.552139       -15.0245
  29   2.0000      -0.518695       -14.1144
  30   2.0000      -0.499750       -13.5989
  31   2.0000      -0.491432       -13.3725
  32   2.0000      -0.463920       -12.6239
  33   2.0000      -0.447115       -12.1666
  34   0.0000       0.087910         2.3922
  35   0.0000       0.115047         3.1306
  36   0.0000       0.137188         3.7331
  37   0.0000       0.151168         4.1135
  38   0.0000       0.171763         4.6739

MULLIKEN ATOMIC CHARGES
-----------------------
   0 C :   -0.415565
   1 C :    0.355331
   2 O :   -0.454367
   3 C :   -0.248205
   4 N :   -0.041799
   5 C :    0.173371
   6 O :   -0.301549
   7 C :   -0.017574
   8 O :   -0.476460
   9 H :    0.156852
  10 H :    0.168895
  11 H :    0.148298
  12 H :    0.337237
  13 H :    0.143434
  14 H :    0.135705
  15 H :    0.336395
Sum of atomic charges:   -0.0000000

LOEWDIN ATOMIC CHARGES
----------------------
   0 C :   -0.243781
   1 C :   -0.370390
   2 O :    0.046559
   3 C :   -0.148461
   4 N :    0.088510
   5 C :   -0.273694
   6 O :    0.175307
   7 C :   -0.329377
   8 O :   -0.025355
   9 H :    0.137402
  10 H :    0.144474
  11 H :    0.133016
  12 H :    0.190300
  13 H :    0.145855
  14 H :    0.146920
  15 H :    0.182713

  Mayer bond orders larger than 0.1
B(  0-C ,  1-C ) :   0.9228 B(  0-C ,  9-H ) :   0.9325 B(  0-C , 10-H ) :   0.9167
B(  0-C , 11-H ) :   0.9213 B(  1-C ,  2-O ) :   0.9409 B(  1-C ,  3-C ) :   0.9038
B(  1-C ,  5-C ) :   0.7921 B(  2-O , 12-H ) :   0.8291 B(  3-C ,  4-N ) :   2.8433
B(  5-C ,  6-O ) :   1.9148 B(  5-C ,  7-C ) :   0.9715 B(  7-C ,  8-O ) :   1.0014
B(  7-C , 13-H ) :   0.9027 B(  7-C , 14-H ) :   0.8886 B(  8-O , 15-H ) :   0.8106

MP2 TOTAL ENERGY:     -474.293162572 Eh
FINAL SINGLE POINT ENERGY      -474.293162571563

DIPOLE MOMENT
-------------
                                X             Y             Z
Electronic contribution:     -2.07291      -3.08831      -1.21624
Nuclear contribution   :      2.30939       4.23500       2.21117
                        -----------------------------------------
Total Dipole Moment    :      0.23648       1.14669       0.99493
                        -----------------------------------------
Magnitude (a.u.)       :      1.53646
Magnitude (Debye)      :      3.90537

                             ****ORCA TERMINATED NORMALLY****
TOTAL RUN TIME: 0 days 0 hours 14 minutes 40 seconds 789 msec
