                         Program Version 3.0.3 - RELEASE   -
|  1> ! RI-MP2 RIJK def2-TZVP def2-TZVP/C def2-TZVP/JK TIGHTSCF
|  2> % maxcore 2000
|  3> % mp2 density relaxed end
|  4> *xyz 0 1
|  5>  C        0.1505459721     1.5133257972    -0.1280114899
|  6>  C        0.0565469599    -0.0154524102    -0.1707720286
|  7>  C       -1.3709206747    -0.5333571606    -0.0268656409
|  8>  C       -1.5710351903    -2.0566958175     0.0114794173
|  9>  O       -0.8701706844    -2.5555279421     1.1539083476
| 10>  C       -2.1826519347    -2.0203136149     1.3513374867
| 11>  C       -2.0584365960    -0.4821347918     1.3928316128
| 12>  O       -1.2773936275     0.0968944991     2.3970257766
| 13>  C       -1.8486057023    -0.0018797520     3.6827995120
| 14>  H        1.1866028392     1.8458576379    -0.2466027274
| 15>  H       -0.4381746350     1.9715520241    -0.9315166617
| 16>  H       -0.2211245255     1.8955600733     0.8261750675
| 17>  H        0.4623013368    -0.3848854134    -1.1222307743
| 18>  H        0.6668957560    -0.4525314593     0.6238365789
| 19>  H       -2.0288233756    -0.0695568972    -0.7701832315
| 20>  H       -1.7390005182    -2.7459577730    -0.8082641277
| 21>  H       -2.9227381268    -2.6714623624     1.8025116403
| 22>  H       -3.0538283800    -0.0120326683     1.3459196764
| 23>  H       -1.1721102109     0.5006604760     4.3776146585
| 24>  H       -2.8345821337     0.4875135685     3.7278125779
| 25>  H       -1.9662612585    -1.0487817932     3.9982023694
| 26> *
| 27>
| 28>                          ****END OF INPUT****

CARTESIAN COORDINATES (ANGSTROEM)
---------------------------------
  C      0.150546    1.513326   -0.128011
  C      0.056547   -0.015452   -0.170772
  C     -1.370921   -0.533357   -0.026866
  C     -1.571035   -2.056696    0.011479
  O     -0.870171   -2.555528    1.153908
  C     -2.182652   -2.020314    1.351337
  C     -2.058437   -0.482135    1.392832
  O     -1.277394    0.096894    2.397026
  C     -1.848606   -0.001880    3.682800
  H      1.186603    1.845858   -0.246603
  H     -0.438175    1.971552   -0.931517
  H     -0.221125    1.895560    0.826175
  H      0.462301   -0.384885   -1.122231
  H      0.666896   -0.452531    0.623837
  H     -2.028823   -0.069557   -0.770183
  H     -1.739001   -2.745958   -0.808264
  H     -2.922738   -2.671462    1.802512
  H     -3.053828   -0.012033    1.345920
  H     -1.172110    0.500660    4.377615
  H     -2.834582    0.487514    3.727813
  H     -1.966261   -1.048782    3.998202

 Total Charge           Charge          ....    0
 Multiplicity           Mult            ....    1
 Number of Electrons    NEL             ....   70
 Basis Dimension        Dim             ....  351

ORBITAL ENERGIES
----------------

  NO   OCC          E(Eh)            E(eV)
   0   2.0000     -20.567716      -559.6760
   1   2.0000     -20.558687      -559.4303
   2   2.0000     -11.290609      -307.2331
   3   2.0000     -11.285653      -307.0982
   4   2.0000     -11.282919      -307.0238
   5   2.0000     -11.273472      -306.7668
   6   2.0000     -11.236393      -305.7578
   7   2.0000     -11.211581      -305.0826
   8   2.0000     -11.202978      -304.8485
   9   2.0000      -1.421917       -38.6923
  10   2.0000      -1.378895       -37.5216
  11   2.0000      -1.094791       -29.7908
  12   2.0000      -1.013153       -27.5693
  13   2.0000      -0.941356       -25.6156
  14   2.0000      -0.903870       -24.5956
  15   2.0000      -0.852782       -23.2054
  16   2.0000      -0.811653       -22.0862
  17   2.0000      -0.747345       -20.3363
  18   2.0000      -0.726980       -19.7821
  19   2.0000      -0.663555       -18.0562
  20   2.0000      -0.656077       -17.8528
  21   2.0000      -0.632712       -17.2170
  22   2.0000      -0.604868       -16.4593
  23   2.0000      -0.586699       -15.9649
  24   2.0000      -0.569952       -15.5092
  25   2.0000      -0.550482       -14.9794
  26   2.0000      -0.523807       -14.2535
  27   2.0000      -0.508891       -13.8476
  28   2.0000      -0.505827       -13.7643
  29   2.0000      -0.485615       -13.2142
  30   2.0000      -0.474697       -12.9172
  31   2.0000      -0.469550       -12.7771
  32   2.0000      -0.428093       -11.6490
  33   2.0000      -0.418423       -11.3859
  34   2.0000      -0.395698       -10.7675
  35   0.0000       0.138881         3.7791
  36   0.0000       0.152086         4.1385
  37   0.0000       0.163276         4.4430
  38   0.0000       0.175228         4.7682
  39   0.0000       0.186053         5.0628

MULLIKEN ATOMIC CHARGES
-----------------------
   0 C :   -0.408585
   1 C :   -0.216384
   2 C :   -0.040190
   3 C :    0.031774
   4 O :   -0.324891
   5 C :   -0.083350
   6 C :    0.100897
   7 O :   -0.295432
   8 C :   -0.234795
   9 H :    0.129030
  10 H :    0.111373
  11 H :    0.144518
  12 H :    0.108818
  13 H :    0.135336
  14 H :    0.103562
  15 H :    0.140418
  16 H :    0.141068
  17 H :    0.083530
  18 H :    0.143068
  19 H :    0.110089
  20 H :    0.120145
Sum of atomic charges:   -0.0000000

LOEWDIN ATOMIC CHARGES
----------------------
   0 C :   -0.319129
   1 C :   -0.271465
   2 C :   -0.191819
   3 C :   -0.223532
   4 O :    0.182628
   5 C :   -0.237635
   6 C :   -0.275866
   7 O :    0.171763
   8 C :   -0.349642
   9 H :    0.120130
  10 H :    0.116764
  11 H :    0.123619
  12 H :    0.137605
  13 H :    0.146526
  14 H :    0.153023
  15 H :    0.130361
  16 H :    0.128402
  17 H :    0.135644
  18 H :    0.114996
  19 H :    0.101942
  20 H :    0.105685

  Mayer bond orders larger than 0.1
B(  0-C ,  1-C ) :   0.9095 B(  0-C ,  9-H ) :   0.9408 B(  0-C , 10-H ) :   0.9357
B(  0-C , 11-H ) :   0.9394 B(  1-C ,  2-C ) :   0.8910 B(  1-C , 12-H ) :   0.9337
B(  1-C , 13-H ) :   0.9307 B(  2-C ,  3-C ) :   0.8925 B(  2-C ,  6-C ) :   0.9719
B(  2-C , 14-H ) :   0.9096 B(  3-C ,  4-O ) :   0.9051 B(  3-C ,  5-C ) :   0.8997
B(  3-C , 15-H ) :   0.9214 B(  4-O ,  5-C ) :   0.9337 B(  5-C ,  6-C ) :   0.8995
B(  5-C , 16-H ) :   0.9273 B(  6-C ,  7-O ) :   0.9598 B(  6-C , 17-H ) :   0.9108
B(  7-O ,  8-C ) :   0.9121 B(  8-C , 18-H ) :   0.9417 B(  8-C , 19-H ) :   0.9345
B(  8-C , 20-H ) :   0.9321

MP2 TOTAL ENERGY:     -423.465354573 Eh
FINAL SINGLE POINT ENERGY      -423.465354572639

DIPOLE MOMENT
-------------
                                X             Y             Z
Electronic contribution:     -1.27553      -6.51373       0.44277
Nuclear contribution   :      0.38522       6.65109      -0.52456
                        -----------------------------------------
Total Dipole Moment    :     -0.89031       0.13736      -0.08179
                        -----------------------------------------
Magnitude (a.u.)       :      0.90455
Magnitude (Debye)      :      2.29918

                             ****ORCA TERMINATED NORMALLY****
TOTAL RUN TIME: 0 days 0 hours 31 minutes 37 seconds 595 msec
