                         Program Version 3.0.3 - RELEASE   -
|  1> ! RI-MP2 RIJK def2-TZVP def2-TZVP/C def2-TZVP/JK TIGHTSCF
|  2> % maxcore 2000
|  3> % mp2 density relaxed end
|  4> *xyz 0 1
|  5>  C        0.1129765561     1.4973910934    -0.0901996517
|  6>  C       -0.0038163287    -0.0276988149    -0.0744946771
|  7>  C       -1.4563428989    -0.5011176858     0.0501538466
|  8>  O       -2.1573465731    -0.0742770961    -1.1244150932
|  9>  C       -3.5120052333     0.0261870973    -1.0357097489
| 10>  C       -4.0761655689     0.4547252910    -2.3632683638
| 11>  N       -4.1110231620    -0.2271202639     0.0501233623
| 12>  C       -1.5299282339    -1.9679741898     0.1744293916
| 13>  N       -1.5392883856    -3.1188080944     0.2728806694
| 14>  H        1.1601422668     1.7998279113    -0.1763605456
| 15>  H       -0.4346150972     1.9230413965    -0.9347094550
| 16>  H       -0.2879749912     1.9354570981     0.8302408845
| 17>  H        0.4241394359    -0.4584321009    -0.9857372769
| 18>  H        0.5542145790    -0.4481500136     0.7687354105
| 19>  H       -1.9409581357    -0.0663155116     0.9300854864
| 20>  H       -3.6265009170     1.4014270673    -2.6772893267
| 21>  H       -3.8351291412    -0.2889400638    -3.1287820485
| 22>  H       -5.1590598200     0.5720817967    -2.3058187896
| 23>  H       -5.1151778710    -0.1012406170    -0.0455608844
| 24> *
| 25>
| 26>                          ****END OF INPUT****

CARTESIAN COORDINATES (ANGSTROEM)
---------------------------------
  C      0.112977    1.497391   -0.090200
  C     -0.003816   -0.027699   -0.074495
  C     -1.456343   -0.501118    0.050154
  O     -2.157347   -0.074277   -1.124415
  C     -3.512005    0.026187   -1.035710
  C     -4.076166    0.454725   -2.363268
  N     -4.111023   -0.227120    0.050123
  C     -1.529928   -1.967974    0.174429
  N     -1.539288   -3.118808    0.272881
  H      1.160142    1.799828   -0.176361
  H     -0.434615    1.923041   -0.934709
  H     -0.287975    1.935457    0.830241
  H      0.424139   -0.458432   -0.985737
  H      0.554215   -0.448150    0.768735
  H     -1.940958   -0.066316    0.930085
  H     -3.626501    1.401427   -2.677289
  H     -3.835129   -0.288940   -3.128782
  H     -5.159060    0.572082   -2.305819
  H     -5.115178   -0.101241   -0.045561

 Total Charge           Charge          ....    0
 Multiplicity           Mult            ....    1
 Number of Electrons    NEL             ....   68
 Basis Dimension        Dim             ....  339

ORBITAL ENERGIES
----------------

  NO   OCC          E(Eh)            E(eV)
   0   2.0000     -20.612088      -560.8834
   1   2.0000     -15.569164      -423.6585
   2   2.0000     -15.548546      -423.0974
   3   2.0000     -11.356163      -309.0169
   4   2.0000     -11.338578      -308.5384
   5   2.0000     -11.268305      -306.6262
   6   2.0000     -11.252263      -306.1896
   7   2.0000     -11.250335      -306.1372
   8   2.0000     -11.230962      -305.6100
   9   2.0000      -1.448535       -39.4166
  10   2.0000      -1.219035       -33.1716
  11   2.0000      -1.209548       -32.9135
  12   2.0000      -1.094222       -29.7753
  13   2.0000      -1.019463       -27.7410
  14   2.0000      -0.971804       -26.4441
  15   2.0000      -0.847090       -23.0505
  16   2.0000      -0.821265       -22.3478
  17   2.0000      -0.741829       -20.1862
  18   2.0000      -0.705421       -19.1955
  19   2.0000      -0.672811       -18.3081
  20   2.0000      -0.630872       -17.1669
  21   2.0000      -0.613044       -16.6818
  22   2.0000      -0.607361       -16.5271
  23   2.0000      -0.577427       -15.7126
  24   2.0000      -0.568691       -15.4749
  25   2.0000      -0.562565       -15.3082
  26   2.0000      -0.549180       -14.9439
  27   2.0000      -0.518103       -14.0983
  28   2.0000      -0.515506       -14.0276
  29   2.0000      -0.508284       -13.8311
  30   2.0000      -0.468479       -12.7480
  31   2.0000      -0.454621       -12.3709
  32   2.0000      -0.444115       -12.0850
  33   2.0000      -0.421746       -11.4763
  34   0.0000       0.117918         3.2087
  35   0.0000       0.140308         3.8180
  36   0.0000       0.157696         4.2911
  37   0.0000       0.164709         4.4820
  38   0.0000       0.170503         4.6396

MULLIKEN ATOMIC CHARGES
-----------------------
   0 C :   -0.402871
   1 C :   -0.175973
   2 C :    0.181298
   3 O :   -0.262813
   4 C :    0.213933
   5 C :   -0.377287
   6 N :   -0.418130
   7 C :   -0.187916
   8 N :   -0.048340
   9 H :    0.143518
  10 H :    0.141124
  11 H :    0.128017
  12 H :    0.129589
  13 H :    0.132311
  14 H :    0.142789
  15 H :    0.151544
  16 H :    0.158556
  17 H :    0.128923
  18 H :    0.221727
Sum of atomic charges:   -0.0000000

LOEWDIN ATOMIC CHARGES
----------------------
   0 C :   -0.311746
   1 C :   -0.254350
   2 C :   -0.288436
   3 O :    0.278234
   4 C :   -0.428212
   5 C :   -0.272276
   6 N :   -0.056349
   7 C :   -0.160844
   8 N :    0.071078
   9 H :    0.125883
  10 H :    0.124817
  11 H :    0.124064
  12 H :    0.147641
  13 H :    0.149951
  14 H :    0.170504
  15 H :    0.138534
  16 H :    0.141261
  17 H :    0.130205
  18 H :    0.170038

  Mayer bond orders larger than 0.1
B(  0-C ,  1-C ) :   0.9143 B(  0-C ,  9-H ) :   0.9390 B(  0-C , 10-H ) :   0.9389
B(  0-C , 11-H ) :   0.9349 B(  1-C ,  2-C ) :   0.9026 B(  1-C , 12-H ) :   0.9232
B(  1-C , 13-H ) :   0.9292 B(  2-C ,  3-O ) :   0.8408 B(  2-C ,  7-C ) :   0.9424
B(  2-C , 14-H ) :   0.9005 B(  3-O ,  4-C ) :   1.0337 B(  4-C ,  5-C ) :   0.9219
B(  4-C ,  6-N ) :   1.9063 B(  5-C , 15-H ) :   0.9183 B(  5-C , 16-H ) :   0.9191
B(  5-C , 17-H ) :   0.9393 B(  6-N , 18-H ) :   0.8602 B(  7-C ,  8-N ) :   2.8774

MP2 TOTAL ENERGY:     -418.526944860 Eh
FINAL SINGLE POINT ENERGY      -418.526944860306

DIPOLE MOMENT
-------------
                                X             Y             Z
Electronic contribution:     -2.21935      -7.78555       2.05581
Nuclear contribution   :      2.02631       9.43827      -2.68704
                        -----------------------------------------
Total Dipole Moment    :     -0.19304       1.65272      -0.63123
                        -----------------------------------------
Magnitude (a.u.)       :      1.77966
Magnitude (Debye)      :      4.52354

                             ****ORCA TERMINATED NORMALLY****
TOTAL RUN TIME: 0 days 0 hours 16 minutes 39 seconds 599 msec
