                         Program Version 3.0.3 - RELEASE   -
|  1> ! RI-MP2 RIJK def2-TZVP def2-TZVP/C def2-TZVP/JK TIGHTSCF
|  2> % maxcore 2000
|  3> % mp2 density relaxed end
|  4> *xyz 0 1
|  5>  C       -0.3525500462     1.4961701312    -0.0820551988
|  6>  C        0.1133862930     0.0635563419     0.0243185023
|  7>  C       -0.9525459336    -1.0515373067     0.1629861333
|  8>  O       -0.2611493947    -1.6410863238     1.2908233879
|  9>  C        0.7682578405    -0.6353210371     1.2529264114
| 10>  C        1.9606625992    -1.0017103389     0.3327914094
| 11>  C        2.2277082180    -2.4809019637     0.1254222274
| 12>  O        3.0542367241    -2.5984915330    -1.0276974678
| 13>  N        1.3033872902    -0.2738391728    -0.7884336444
| 14>  H        0.4892459416     2.1835417771     0.0358919105
| 15>  H       -0.7945491395     1.6808507802    -1.0688701573
| 16>  H       -1.1100846751     1.7269318997     0.6740980745
| 17>  H       -1.9542027853    -0.7086868521     0.4540209642
| 18>  H       -1.0396799194    -1.7400658484    -0.6875843390
| 19>  H        0.9605502817    -0.1945100674     2.2335995995
| 20>  H        2.8992036484    -0.5064522278     0.6138699186
| 21>  H        2.7222903535    -2.8898005951     1.0214969938
| 22>  H        1.2785037463    -3.0170990179    -0.0028281672
| 23>  H        3.1633363153    -3.5338685615    -1.2216427774
| 24>  H        1.1512154219    -0.8254059839    -1.6271533409
| 25> *
| 26>
| 27>                          ****END OF INPUT****

CARTESIAN COORDINATES (ANGSTROEM)
---------------------------------
  C     -0.352550    1.496170   -0.082055
  C      0.113386    0.063556    0.024319
  C     -0.952546   -1.051537    0.162986
  O     -0.261149   -1.641086    1.290823
  C      0.768258   -0.635321    1.252926
  C      1.960663   -1.001710    0.332791
  C      2.227708   -2.480902    0.125422
  O      3.054237   -2.598492   -1.027697
  N      1.303387   -0.273839   -0.788434
  H      0.489246    2.183542    0.035892
  H     -0.794549    1.680851   -1.068870
  H     -1.110085    1.726932    0.674098
  H     -1.954203   -0.708687    0.454021
  H     -1.039680   -1.740066   -0.687584
  H      0.960550   -0.194510    2.233600
  H      2.899204   -0.506452    0.613870
  H      2.722290   -2.889801    1.021497
  H      1.278504   -3.017099   -0.002828
  H      3.163336   -3.533869   -1.221643
  H      1.151215   -0.825406   -1.627153

 Total Charge           Charge          ....    0
 Multiplicity           Mult            ....    1
 Number of Electrons    NEL             ....   70
 Basis Dimension        Dim             ....  345

ORBITAL ENERGIES
----------------

  NO   OCC          E(Eh)            E(eV)
   0   2.0000     -20.558149      -559.4157
   1   2.0000     -20.553122      -559.2789
   2   2.0000     -15.538704      -422.8296
   3   2.0000     -11.282963      -307.0250
   4   2.0000     -11.280241      -306.9510
   5   2.0000     -11.274415      -306.7924
   6   2.0000     -11.266909      -306.5882
   7   2.0000     -11.254564      -306.2523
   8   2.0000     -11.218526      -305.2716
   9   2.0000      -1.388633       -37.7866
  10   2.0000      -1.361399       -37.0456
  11   2.0000      -1.219915       -33.1956
  12   2.0000      -1.030640       -28.0451
  13   2.0000      -0.975801       -26.5529
  14   2.0000      -0.930018       -25.3071
  15   2.0000      -0.913953       -24.8699
  16   2.0000      -0.808464       -21.9994
  17   2.0000      -0.727606       -19.7992
  18   2.0000      -0.710455       -19.3325
  19   2.0000      -0.683284       -18.5931
  20   2.0000      -0.656632       -17.8679
  21   2.0000      -0.647504       -17.6195
  22   2.0000      -0.624496       -16.9934
  23   2.0000      -0.584942       -15.9171
  24   2.0000      -0.573413       -15.6034
  25   2.0000      -0.565778       -15.3956
  26   2.0000      -0.553827       -15.0704
  27   2.0000      -0.521558       -14.1923
  28   2.0000      -0.509479       -13.8636
  29   2.0000      -0.500252       -13.6126
  30   2.0000      -0.477396       -12.9906
  31   2.0000      -0.450518       -12.2592
  32   2.0000      -0.429980       -11.7003
  33   2.0000      -0.407597       -11.0913
  34   2.0000      -0.363637        -9.8951
  35   0.0000       0.131435         3.5765
  36   0.0000       0.140586         3.8255
  37   0.0000       0.160082         4.3561
  38   0.0000       0.172310         4.6888
  39   0.0000       0.185478         5.0471

MULLIKEN ATOMIC CHARGES
-----------------------
   0 C :   -0.398291
   1 C :   -0.037020
   2 C :   -0.006359
   3 O :   -0.352518
   4 C :    0.155581
   5 C :   -0.015237
   6 C :   -0.127543
   7 O :   -0.467985
   8 N :   -0.302380
   9 H :    0.137497
  10 H :    0.129287
  11 H :    0.127288
  12 H :    0.100674
  13 H :    0.090245
  14 H :    0.124663
  15 H :    0.093055
  16 H :    0.096922
  17 H :    0.124433
  18 H :    0.318903
  19 H :    0.208786
Sum of atomic charges:    0.0000000

LOEWDIN ATOMIC CHARGES
----------------------
   0 C :   -0.277257
   1 C :   -0.302567
   2 C :   -0.232893
   3 O :    0.134365
   4 C :   -0.202486
   5 C :   -0.254542
   6 C :   -0.335794
   7 O :   -0.050912
   8 N :    0.051973
   9 H :    0.130708
  10 H :    0.130424
  11 H :    0.126879
  12 H :    0.120594
  13 H :    0.115263
  14 H :    0.127617
  15 H :    0.143792
  16 H :    0.121248
  17 H :    0.121225
  18 H :    0.172469
  19 H :    0.159894

  Mayer bond orders larger than 0.1
B(  0-C ,  1-C ) :   0.9174 B(  0-C ,  9-H ) :   0.9376 B(  0-C , 10-H ) :   0.9280
B(  0-C , 11-H ) :   0.9353 B(  1-C ,  2-C ) :   1.0117 B(  1-C ,  4-C ) :   0.8775
B(  1-C ,  8-N ) :   1.0245 B(  2-C ,  3-O ) :   0.9298 B(  2-C , 12-H ) :   0.9064
B(  2-C , 13-H ) :   0.9025 B(  3-O ,  4-C ) :   0.9351 B(  4-C ,  5-C ) :   0.8567
B(  4-C , 14-H ) :   0.9134 B(  5-C ,  6-C ) :   0.9466 B(  5-C ,  8-N ) :   0.9982
B(  5-C , 15-H ) :   0.8993 B(  6-C ,  7-O ) :   1.0188 B(  6-C , 16-H ) :   0.9303
B(  6-C , 17-H ) :   0.9118 B(  7-O , 18-H ) :   0.8473 B(  8-N , 19-H ) :   0.8643

MP2 TOTAL ENERGY:     -439.515661808 Eh
FINAL SINGLE POINT ENERGY      -439.515661807882

DIPOLE MOMENT
-------------
                                X             Y             Z
Electronic contribution:      1.61401      -2.76425       0.81253
Nuclear contribution   :     -1.96515       2.44887      -0.83737
                        -----------------------------------------
Total Dipole Moment    :     -0.35114      -0.31538      -0.02484
                        -----------------------------------------
Magnitude (a.u.)       :      0.47263
Magnitude (Debye)      :      1.20134

                             ****ORCA TERMINATED NORMALLY****
TOTAL RUN TIME: 0 days 0 hours 27 minutes 27 seconds 663 msec
