                         Program Version 3.0.3 - RELEASE   -
|  1> ! RI-MP2 RIJK def2-TZVP def2-TZVP/C def2-TZVP/JK TIGHTSCF
|  2> % maxcore 2000
|  3> % mp2 density relaxed end
|  4> *xyz 0 1
|  5>  C       -1.0841173453     1.2292261004    -0.4956259606
|  6>  C       -0.4129216315    -0.1395723741    -0.3583421181
|  7>  C        0.1302875973    -0.6573340282    -1.6838654934
|  8>  O        0.7293691935    -1.9194176158    -1.4611177679
|  9>  C        1.2947663925    -2.5548014091    -2.6108145552
| 10>  C        2.7988621822    -2.7520597318    -2.3872208193
| 11>  C        3.5678857711    -1.4461205489    -2.1776395099
| 12>  C        0.5755037035    -3.8870102505    -2.8539205453
| 13>  C       -0.9239927937    -3.7392490862    -3.1193939747
| 14>  H       -0.3816631126     1.9833741444    -0.8676493827
| 15>  H       -1.9287392985     1.1921775942    -1.1926382828
| 16>  H       -1.4654676974     1.5790728134     0.4680206444
| 17>  H        0.4130798846    -0.0882725644     0.3605182138
| 18>  H       -1.1236312648    -0.8741848355     0.0377725645
| 19>  H       -0.6865301908    -0.7381566993    -2.4201463808
| 20>  H        0.8645628416     0.0554769310    -2.0944999052
| 21>  H        1.1479594933    -1.9058783791    -3.4894194508
| 22>  H        2.9302921399    -3.4015864832    -1.5126297075
| 23>  H        3.2098984412    -3.2962651925    -3.2467759159
| 24>  H        4.6314080899    -1.6375251006    -2.0047514330
| 25>  H        3.4872743702    -0.7894468763    -3.0515831974
| 26>  H        3.1781294083    -0.9057742086    -1.3106238981
| 27>  H        1.0584256019    -4.3938197247    -3.6988323791
| 28>  H        0.7330193052    -4.5239549014    -1.9743948568
| 29>  H       -1.4177369559    -3.2530248043    -2.2735820504
| 30>  H       -1.1144872346    -3.1376344754    -4.0156448736
| 31>  H       -1.3964337809    -4.7149027437    -3.2694162843
| 32> *
| 33>
| 34>                          ****END OF INPUT****

CARTESIAN COORDINATES (ANGSTROEM)
---------------------------------
  C     -1.084117    1.229226   -0.495626
  C     -0.412922   -0.139572   -0.358342
  C      0.130288   -0.657334   -1.683865
  O      0.729369   -1.919418   -1.461118
  C      1.294766   -2.554801   -2.610815
  C      2.798862   -2.752060   -2.387221
  C      3.567886   -1.446121   -2.177640
  C      0.575504   -3.887010   -2.853921
  C     -0.923993   -3.739249   -3.119394
  H     -0.381663    1.983374   -0.867649
  H     -1.928739    1.192178   -1.192638
  H     -1.465468    1.579073    0.468021
  H      0.413080   -0.088273    0.360518
  H     -1.123631   -0.874185    0.037773
  H     -0.686530   -0.738157   -2.420146
  H      0.864563    0.055477   -2.094500
  H      1.147959   -1.905878   -3.489419
  H      2.930292   -3.401586   -1.512630
  H      3.209898   -3.296265   -3.246776
  H      4.631408   -1.637525   -2.004751
  H      3.487274   -0.789447   -3.051583
  H      3.178129   -0.905774   -1.310624
  H      1.058426   -4.393820   -3.698832
  H      0.733019   -4.523955   -1.974395
  H     -1.417737   -3.253025   -2.273582
  H     -1.114487   -3.137634   -4.015645
  H     -1.396434   -4.714903   -3.269416

 Total Charge           Charge          ....    0
 Multiplicity           Mult            ....    1
 Number of Electrons    NEL             ....   74
 Basis Dimension        Dim             ....  387

ORBITAL ENERGIES
----------------

  NO   OCC          E(Eh)            E(eV)
   0   2.0000     -20.541322      -558.9578
   1   2.0000     -11.270999      -306.6995
   2   2.0000     -11.267877      -306.6145
   3   2.0000     -11.215756      -305.1962
   4   2.0000     -11.214464      -305.1611
   5   2.0000     -11.214445      -305.1606
   6   2.0000     -11.214259      -305.1555
   7   2.0000     -11.208461      -304.9977
   8   2.0000     -11.208442      -304.9972
   9   2.0000      -1.362901       -37.0864
  10   2.0000      -1.078101       -29.3366
  11   2.0000      -1.038389       -28.2560
  12   2.0000      -1.014734       -27.6123
  13   2.0000      -0.932368       -25.3710
  14   2.0000      -0.890728       -24.2379
  15   2.0000      -0.821546       -22.3554
  16   2.0000      -0.804988       -21.9048
  17   2.0000      -0.778671       -21.1887
  18   2.0000      -0.672287       -18.2939
  19   2.0000      -0.665960       -18.1217
  20   2.0000      -0.610484       -16.6121
  21   2.0000      -0.602383       -16.3917
  22   2.0000      -0.592248       -16.1159
  23   2.0000      -0.584529       -15.9059
  24   2.0000      -0.557956       -15.1828
  25   2.0000      -0.554599       -15.0914
  26   2.0000      -0.547379       -14.8949
  27   2.0000      -0.513895       -13.9838
  28   2.0000      -0.505104       -13.7446
  29   2.0000      -0.500955       -13.6317
  30   2.0000      -0.489197       -13.3117
  31   2.0000      -0.484142       -13.1742
  32   2.0000      -0.476400       -12.9635
  33   2.0000      -0.464969       -12.6525
  34   2.0000      -0.454677       -12.3724
  35   2.0000      -0.451990       -12.2993
  36   2.0000      -0.401345       -10.9212
  37   0.0000       0.133814         3.6413
  38   0.0000       0.147056         4.0016
  39   0.0000       0.151994         4.1360
  40   0.0000       0.161545         4.3959
  41   0.0000       0.176303         4.7975

MULLIKEN ATOMIC CHARGES
-----------------------
   0 C :   -0.409826
   1 C :   -0.167691
   2 C :   -0.083330
   3 O :   -0.324043
   4 C :    0.049013
   5 C :   -0.167948
   6 C :   -0.408554
   7 C :   -0.167960
   8 C :   -0.408577
   9 H :    0.123620
  10 H :    0.123624
  11 H :    0.137070
  12 H :    0.111717
  13 H :    0.111695
  14 H :    0.099851
  15 H :    0.099830
  16 H :    0.078066
  17 H :    0.106756
  18 H :    0.103997
  19 H :    0.134797
  20 H :    0.117028
  21 H :    0.139128
  22 H :    0.104001
  23 H :    0.106743
  24 H :    0.139126
  25 H :    0.117050
  26 H :    0.134817
Sum of atomic charges:   -0.0000000

LOEWDIN ATOMIC CHARGES
----------------------
   0 C :   -0.320431
   1 C :   -0.295437
   2 C :   -0.340664
   3 O :    0.179074
   4 C :   -0.323591
   5 C :   -0.276301
   6 C :   -0.321325
   7 C :   -0.276307
   8 C :   -0.321330
   9 H :    0.120444
  10 H :    0.120443
  11 H :    0.122342
  12 H :    0.136577
  13 H :    0.136568
  14 H :    0.118124
  15 H :    0.118117
  16 H :    0.140459
  17 H :    0.140542
  18 H :    0.138010
  19 H :    0.120718
  20 H :    0.118490
  21 H :    0.123857
  22 H :    0.138014
  23 H :    0.140541
  24 H :    0.123855
  25 H :    0.118489
  26 H :    0.120723

  Mayer bond orders larger than 0.1
B(  0-C ,  1-C ) :   0.9103 B(  0-C ,  9-H ) :   0.9371 B(  0-C , 10-H ) :   0.9371
B(  0-C , 11-H ) :   0.9400 B(  1-C ,  2-C ) :   0.9527 B(  1-C , 12-H ) :   0.9320
B(  1-C , 13-H ) :   0.9320 B(  2-C ,  3-O ) :   0.9279 B(  2-C , 14-H ) :   0.9225
B(  2-C , 15-H ) :   0.9225 B(  3-O ,  4-C ) :   0.8297 B(  4-C ,  5-C ) :   0.9331
B(  4-C ,  7-C ) :   0.9331 B(  4-C , 16-H ) :   0.9263 B(  5-C ,  6-C ) :   0.9159
B(  5-C , 17-H ) :   0.9247 B(  5-C , 18-H ) :   0.9323 B(  6-C , 19-H ) :   0.9399
B(  6-C , 20-H ) :   0.9382 B(  6-C , 21-H ) :   0.9407 B(  7-C ,  8-C ) :   0.9159
B(  7-C , 22-H ) :   0.9323 B(  7-C , 23-H ) :   0.9247 B(  8-C , 24-H ) :   0.9407
B(  8-C , 25-H ) :   0.9382 B(  8-C , 26-H ) :   0.9399

MP2 TOTAL ENERGY:     -390.020436245 Eh
FINAL SINGLE POINT ENERGY      -390.020436245311

DIPOLE MOMENT
-------------
                                X             Y             Z
Electronic contribution:      0.95958      -2.24487       0.90664
Nuclear contribution   :     -0.97223       2.40576      -1.24093
                        -----------------------------------------
Total Dipole Moment    :     -0.01265       0.16089      -0.33429
                        -----------------------------------------
Magnitude (a.u.)       :      0.37121
Magnitude (Debye)      :      0.94353

                             ****ORCA TERMINATED NORMALLY****
TOTAL RUN TIME: 0 days 0 hours 20 minutes 13 seconds 517 msec
