                         Program Version 3.0.3 - RELEASE   -
|  1> ! RI-MP2 RIJK def2-TZVP def2-TZVP/C def2-TZVP/JK TIGHTSCF
|  2> % maxcore 2000
|  3> % mp2 density relaxed end
|  4> *xyz 0 1
|  5>  C        0.2241703361     1.5150875011     0.0923433125
|  6>  C        0.1392233071     0.0234516270    -0.0104372218
|  7>  C       -0.0729888170    -0.7372271875    -1.0976361944
|  8>  C       -0.2685761595    -0.2965724867    -2.5166372516
|  9>  O        0.6699011135    -0.8991043149    -3.4097776901
| 10>  C       -0.1383597775    -2.2094154405    -0.7359168429
| 11>  C        0.4800163193    -2.2589951488     0.6793160019
| 12>  O        1.8676446690    -2.5718999810     0.6375093931
| 13>  C        0.2362825728    -0.8368121118     1.2355399511
| 14>  H        1.1558299410     1.8197723629     0.5856404116
| 15>  H        0.1753881053     2.0127617533    -0.8790462883
| 16>  H       -0.5927347790     1.9101092646     0.7103385356
| 17>  H       -1.2496466259    -0.6256423210    -2.8815037588
| 18>  H       -0.2457846813     0.7989843389    -2.6005662090
| 19>  H        1.5484482020    -0.6315819569    -3.1205697341
| 20>  H       -1.1810320900    -2.5594752125    -0.7323127676
| 21>  H        0.4103910087    -2.8522570179    -1.4305419794
| 22>  H        0.0377901995    -3.0366056831     1.3062865604
| 23>  H        2.2887483584    -1.9213736363     0.0641431979
| 24>  H        1.0444039193    -0.5411669566     1.9146831710
| 25>  H       -0.6981063016    -0.7816816023     1.8130904329
| 26> *
| 27>
| 28>                          ****END OF INPUT****

CARTESIAN COORDINATES (ANGSTROEM)
---------------------------------
  C      0.224170    1.515088    0.092343
  C      0.139223    0.023452   -0.010437
  C     -0.072989   -0.737227   -1.097636
  C     -0.268576   -0.296572   -2.516637
  O      0.669901   -0.899104   -3.409778
  C     -0.138360   -2.209415   -0.735917
  C      0.480016   -2.258995    0.679316
  O      1.867645   -2.571900    0.637509
  C      0.236283   -0.836812    1.235540
  H      1.155830    1.819772    0.585640
  H      0.175388    2.012762   -0.879046
  H     -0.592735    1.910109    0.710339
  H     -1.249647   -0.625642   -2.881504
  H     -0.245785    0.798984   -2.600566
  H      1.548448   -0.631582   -3.120570
  H     -1.181032   -2.559475   -0.732313
  H      0.410391   -2.852257   -1.430542
  H      0.037790   -3.036606    1.306287
  H      2.288748   -1.921374    0.064143
  H      1.044404   -0.541167    1.914683
  H     -0.698106   -0.781682    1.813090

 Total Charge           Charge          ....    0
 Multiplicity           Mult            ....    1
 Number of Electrons    NEL             ....   70
 Basis Dimension        Dim             ....  351

ORBITAL ENERGIES
----------------

  NO   OCC          E(Eh)            E(eV)
   0   2.0000     -20.558416      -559.4229
   1   2.0000     -20.550140      -559.1977
   2   2.0000     -11.282135      -307.0025
   3   2.0000     -11.278440      -306.9019
   4   2.0000     -11.240989      -305.8829
   5   2.0000     -11.232436      -305.6501
   6   2.0000     -11.229117      -305.5598
   7   2.0000     -11.226385      -305.4855
   8   2.0000     -11.221324      -305.3478
   9   2.0000      -1.360698       -37.0265
  10   2.0000      -1.357526       -36.9402
  11   2.0000      -1.141173       -31.0529
  12   2.0000      -1.012577       -27.5536
  13   2.0000      -0.996248       -27.1093
  14   2.0000      -0.922670       -25.1071
  15   2.0000      -0.887215       -24.1423
  16   2.0000      -0.800533       -21.7836
  17   2.0000      -0.713692       -19.4206
  18   2.0000      -0.681361       -18.5408
  19   2.0000      -0.679475       -18.4895
  20   2.0000      -0.648082       -17.6352
  21   2.0000      -0.614443       -16.7198
  22   2.0000      -0.604492       -16.4491
  23   2.0000      -0.600161       -16.3312
  24   2.0000      -0.588683       -16.0189
  25   2.0000      -0.570374       -15.5207
  26   2.0000      -0.541119       -14.7246
  27   2.0000      -0.523706       -14.2508
  28   2.0000      -0.517680       -14.0868
  29   2.0000      -0.503993       -13.7143
  30   2.0000      -0.495036       -13.4706
  31   2.0000      -0.468550       -12.7499
  32   2.0000      -0.448147       -12.1947
  33   2.0000      -0.424817       -11.5598
  34   2.0000      -0.342461        -9.3188
  35   0.0000       0.117134         3.1874
  36   0.0000       0.139867         3.8060
  37   0.0000       0.155608         4.2343
  38   0.0000       0.157434         4.2840
  39   0.0000       0.174425         4.7463

MULLIKEN ATOMIC CHARGES
-----------------------
   0 C :   -0.422294
   1 C :   -0.011574
   2 C :   -0.164422
   3 C :    0.002936
   4 O :   -0.467591
   5 C :   -0.223002
   6 C :    0.093470
   7 O :   -0.467029
   8 C :   -0.215760
   9 H :    0.141608
  10 H :    0.129091
  11 H :    0.144287
  12 H :    0.113270
  13 H :    0.102982
  14 H :    0.308398
  15 H :    0.115847
  16 H :    0.147924
  17 H :    0.108432
  18 H :    0.310877
  19 H :    0.135423
  20 H :    0.117125
Sum of atomic charges:    0.0000000

LOEWDIN ATOMIC CHARGES
----------------------
   0 C :   -0.273994
   1 C :   -0.168493
   2 C :   -0.172826
   3 C :   -0.305501
   4 O :   -0.050898
   5 C :   -0.202022
   6 C :   -0.312612
   7 O :   -0.023896
   8 C :   -0.203207
   9 H :    0.132128
  10 H :    0.125790
  11 H :    0.134457
  12 H :    0.136927
  13 H :    0.121198
  14 H :    0.171301
  15 H :    0.145260
  16 H :    0.145460
  17 H :    0.138633
  18 H :    0.174327
  19 H :    0.142268
  20 H :    0.145703

  Mayer bond orders larger than 0.1
B(  0-C ,  1-C ) :   0.8926 B(  0-C ,  9-H ) :   0.9345 B(  0-C , 10-H ) :   0.9518
B(  0-C , 11-H ) :   0.9270 B(  1-C ,  2-C ) :   1.6485 B(  1-C ,  8-C ) :   0.9265
B(  2-C ,  3-C ) :   0.9503 B(  2-C ,  5-C ) :   0.9226 B(  3-C ,  4-O ) :   0.8983
B(  3-C , 12-H ) :   0.9090 B(  3-C , 13-H ) :   0.9562 B(  4-O , 14-H ) :   0.8477
B(  5-C ,  6-C ) :   0.9356 B(  5-C , 15-H ) :   0.8969 B(  5-C , 16-H ) :   0.9277
B(  6-C ,  7-O ) :   0.9369 B(  6-C ,  8-C ) :   0.9261 B(  6-C , 17-H ) :   0.9368
B(  7-O , 18-H ) :   0.8437 B(  8-C , 19-H ) :   0.9338 B(  8-C , 20-H ) :   0.8903

MP2 TOTAL ENERGY:     -423.537903570 Eh
FINAL SINGLE POINT ENERGY      -423.537903570083

DIPOLE MOMENT
-------------
                                X             Y             Z
Electronic contribution:      1.66520      -3.54124      -1.60192
Nuclear contribution   :     -1.88424       4.47401       1.89483
                        -----------------------------------------
Total Dipole Moment    :     -0.21903       0.93277       0.29291
                        -----------------------------------------
Magnitude (a.u.)       :      1.00192
Magnitude (Debye)      :      2.54667

                             ****ORCA TERMINATED NORMALLY****
TOTAL RUN TIME: 0 days 0 hours 17 minutes 45 seconds 202 msec
