                         Program Version 3.0.3 - RELEASE   -
|  1> ! RI-MP2 RIJK def2-TZVP def2-TZVP/C def2-TZVP/JK TIGHTSCF
|  2> % maxcore 2000
|  3> % mp2 density relaxed end
|  4> *xyz 0 1
|  5>  O       -0.3219945890     1.4205156900    -0.0359120341
|  6>  C       -0.0851433980     0.0125596586    -0.0165973595
|  7>  C        0.5991347304    -0.4949462882     1.2856355514
|  8>  C       -0.5235237564    -1.3404302187     1.9306697348
|  9>  C       -1.7854021289    -0.5510028421     1.5772603841
| 10>  C       -1.4820158017    -0.6472796504     0.0572591207
| 11>  O       -2.3994005005    -0.1484301420    -0.8668647919
| 12>  C       -1.2846141964    -2.1656208946    -0.0736764134
| 13>  O       -0.6668149908    -2.5508144883     1.1629882694
| 14>  H        0.5008344104     1.8706679356    -0.2465592465
| 15>  H        0.4461549677    -0.2903012085    -0.9276613102
| 16>  H        1.4901372063    -1.0990229255     1.0998646082
| 17>  H        0.8731854337     0.3576815614     1.9150735914
| 18>  H       -0.3577511408    -1.6190739803     2.9710490126
| 19>  H       -2.7088013152    -1.0605159729     1.8592193584
| 20>  H       -1.7866104068     0.4773375814     1.9435986225
| 21>  H       -2.2191431254     0.7986276035    -0.9317172498
| 22>  H       -2.2511974637    -2.6702067838    -0.1941346288
| 23>  H       -0.6415491452    -2.4371416753    -0.9204360692
| 24> *
| 25>
| 26>                          ****END OF INPUT****

CARTESIAN COORDINATES (ANGSTROEM)
---------------------------------
  O     -0.321995    1.420516   -0.035912
  C     -0.085143    0.012560   -0.016597
  C      0.599135   -0.494946    1.285636
  C     -0.523524   -1.340430    1.930670
  C     -1.785402   -0.551003    1.577260
  C     -1.482016   -0.647280    0.057259
  O     -2.399401   -0.148430   -0.866865
  C     -1.284614   -2.165621   -0.073676
  O     -0.666815   -2.550814    1.162988
  H      0.500834    1.870668   -0.246559
  H      0.446155   -0.290301   -0.927661
  H      1.490137   -1.099023    1.099865
  H      0.873185    0.357682    1.915074
  H     -0.357751   -1.619074    2.971049
  H     -2.708801   -1.060516    1.859219
  H     -1.786610    0.477338    1.943599
  H     -2.219143    0.798628   -0.931717
  H     -2.251197   -2.670207   -0.194135
  H     -0.641549   -2.437142   -0.920436

 Total Charge           Charge          ....    0
 Multiplicity           Mult            ....    1
 Number of Electrons    NEL             ....   70
 Basis Dimension        Dim             ....  339

ORBITAL ENERGIES
----------------

  NO   OCC          E(Eh)            E(eV)
   0   2.0000     -20.574769      -559.8679
   1   2.0000     -20.557596      -559.4006
   2   2.0000     -20.549732      -559.1866
   3   2.0000     -11.290810      -307.2385
   4   2.0000     -11.287429      -307.1466
   5   2.0000     -11.282660      -307.0168
   6   2.0000     -11.270361      -306.6821
   7   2.0000     -11.229087      -305.5590
   8   2.0000     -11.219307      -305.2929
   9   2.0000      -1.395786       -37.9813
  10   2.0000      -1.372665       -37.3521
  11   2.0000      -1.358576       -36.9687
  12   2.0000      -1.106514       -30.1098
  13   2.0000      -1.003204       -27.2986
  14   2.0000      -0.968102       -26.3434
  15   2.0000      -0.872007       -23.7285
  16   2.0000      -0.798601       -21.7310
  17   2.0000      -0.759335       -20.6626
  18   2.0000      -0.726190       -19.7606
  19   2.0000      -0.716749       -19.5037
  20   2.0000      -0.670679       -18.2501
  21   2.0000      -0.639277       -17.3956
  22   2.0000      -0.619507       -16.8576
  23   2.0000      -0.594156       -16.1678
  24   2.0000      -0.582762       -15.8578
  25   2.0000      -0.571770       -15.5587
  26   2.0000      -0.545865       -14.8538
  27   2.0000      -0.539980       -14.6936
  28   2.0000      -0.521866       -14.2007
  29   2.0000      -0.517209       -14.0740
  30   2.0000      -0.502165       -13.6646
  31   2.0000      -0.460122       -12.5205
  32   2.0000      -0.442832       -12.0501
  33   2.0000      -0.420898       -11.4532
  34   2.0000      -0.399163       -10.8618
  35   0.0000       0.124332         3.3832
  36   0.0000       0.150809         4.1037
  37   0.0000       0.165941         4.5155
  38   0.0000       0.178914         4.8685
  39   0.0000       0.195629         5.3233

MULLIKEN ATOMIC CHARGES
-----------------------
   0 O :   -0.490270
   1 C :   -0.030287
   2 C :   -0.244521
   3 C :    0.087512
   4 C :   -0.279636
   5 C :    0.231325
   6 O :   -0.468753
   7 C :   -0.063482
   8 O :   -0.329807
   9 H :    0.325749
  10 H :    0.102392
  11 H :    0.122127
  12 H :    0.111940
  13 H :    0.123462
  14 H :    0.126538
  15 H :    0.130023
  16 H :    0.335043
  17 H :    0.111523
  18 H :    0.099122
Sum of atomic charges:    0.0000000

LOEWDIN ATOMIC CHARGES
----------------------
   0 O :   -0.028021
   1 C :   -0.295709
   2 C :   -0.215071
   3 C :   -0.287596
   4 C :   -0.194087
   5 C :   -0.378715
   6 O :    0.029235
   7 C :   -0.242563
   8 O :    0.154923
   9 H :    0.176752
  10 H :    0.134074
  11 H :    0.138747
  12 H :    0.141401
  13 H :    0.137506
  14 H :    0.142866
  15 H :    0.144723
  16 H :    0.186681
  17 H :    0.129444
  18 H :    0.125410

  Mayer bond orders larger than 0.1
B(  0-O ,  1-C ) :   1.0146 B(  0-O ,  9-H ) :   0.8414 B(  1-C ,  2-C ) :   0.9244
B(  1-C ,  5-C ) :   0.8852 B(  1-C , 10-H ) :   0.9407 B(  2-C ,  3-C ) :   0.8950
B(  2-C , 11-H ) :   0.9086 B(  2-C , 12-H ) :   0.8986 B(  3-C ,  4-C ) :   0.9470
B(  3-C ,  8-O ) :   0.9144 B(  3-C , 13-H ) :   0.9229 B(  4-C ,  5-C ) :   0.9003
B(  4-C , 14-H ) :   0.9158 B(  4-C , 15-H ) :   0.9084 B(  5-C ,  6-O ) :   1.0392
B(  5-C ,  7-C ) :   0.9352 B(  6-O , 16-H ) :   0.8182 B(  7-C ,  8-O ) :   0.9509
B(  7-C , 17-H ) :   0.9185 B(  7-C , 18-H ) :   0.9168

MP2 TOTAL ENERGY:     -459.452363293 Eh
FINAL SINGLE POINT ENERGY      -459.452363292646

DIPOLE MOMENT
-------------
                                X             Y             Z
Electronic contribution:     -1.24383      -0.26876      -1.18652
Nuclear contribution   :      2.08696       1.06784       1.24358
                        -----------------------------------------
Total Dipole Moment    :      0.84314       0.79908       0.05706
                        -----------------------------------------
Magnitude (a.u.)       :      1.16304
Magnitude (Debye)      :      2.95622

                             ****ORCA TERMINATED NORMALLY****
TOTAL RUN TIME: 0 days 0 hours 22 minutes 41 seconds 356 msec
