                         Program Version 3.0.3 - RELEASE   -
|  1> ! RI-MP2 RIJK def2-TZVP def2-TZVP/C def2-TZVP/JK TIGHTSCF
|  2> % maxcore 2000
|  3> % mp2 density relaxed end
|  4> *xyz 0 1
|  5>  C        0.1021428233     1.5811785136    -0.1140533564
|  6>  C        0.0238714598     0.0533368124    -0.0427621335
|  7>  C       -1.4068600019    -0.4989079375     0.0721828573
|  8>  C       -1.4802572136    -2.0481345894     0.0004682894
|  9>  C       -2.6401603373    -2.4636639214     0.9330216971
| 10>  C       -2.7785113139    -1.2619897096     1.8575549704
| 11>  C       -2.1100434956    -0.2025328144     1.3760257679
| 12>  C       -3.5651053180    -1.3032568708     3.0336037415
| 13>  C       -4.2420643345    -1.3888662698     4.0274325395
| 14>  H        1.1374790109     1.9179020408    -0.2252472010
| 15>  H       -0.4661281532     1.9668058086    -0.9680130077
| 16>  H       -0.2999467461     2.0511322386     0.7894985717
| 17>  H        0.4859204079    -0.3738390288    -0.9422257597
| 18>  H        0.6135275186    -0.3116146165     0.8082274283
| 19>  H       -1.9953854452    -0.0591300920    -0.7505347486
| 20>  H       -1.6027001967    -2.4159733308    -1.0215673423
| 21>  H       -0.5404046709    -2.4616735158     0.3838291042
| 22>  H       -3.5775204127    -2.6210809550     0.3832274495
| 23>  H       -2.4410307535    -3.3901489135     1.4803308037
| 24>  H       -2.1027382759     0.7737917474     1.8463981278
| 25>  H       -4.8368677315    -1.4472204561     4.9048100108
| 26> *
| 27>
| 28>                          ****END OF INPUT****

CARTESIAN COORDINATES (ANGSTROEM)
---------------------------------
  C      0.102143    1.581179   -0.114053
  C      0.023871    0.053337   -0.042762
  C     -1.406860   -0.498908    0.072183
  C     -1.480257   -2.048135    0.000468
  C     -2.640160   -2.463664    0.933022
  C     -2.778511   -1.261990    1.857555
  C     -2.110043   -0.202533    1.376026
  C     -3.565105   -1.303257    3.033604
  C     -4.242064   -1.388866    4.027433
  H      1.137479    1.917902   -0.225247
  H     -0.466128    1.966806   -0.968013
  H     -0.299947    2.051132    0.789499
  H      0.485920   -0.373839   -0.942226
  H      0.613528   -0.311615    0.808227
  H     -1.995385   -0.059130   -0.750535
  H     -1.602700   -2.415973   -1.021567
  H     -0.540405   -2.461674    0.383829
  H     -3.577520   -2.621081    0.383227
  H     -2.441031   -3.390149    1.480331
  H     -2.102738    0.773792    1.846398
  H     -4.836868   -1.447220    4.904810

 Total Charge           Charge          ....    0
 Multiplicity           Mult            ....    1
 Number of Electrons    NEL             ....   66
 Basis Dimension        Dim             ....  351

ORBITAL ENERGIES
----------------

  NO   OCC          E(Eh)            E(eV)
   0   2.0000     -11.248071      -306.0756
   1   2.0000     -11.234540      -305.7074
   2   2.0000     -11.234005      -305.6928
   3   2.0000     -11.233542      -305.6802
   4   2.0000     -11.229379      -305.5670
   5   2.0000     -11.224091      -305.4230
   6   2.0000     -11.223674      -305.4117
   7   2.0000     -11.223372      -305.4035
   8   2.0000     -11.216229      -305.2091
   9   2.0000      -1.151729       -31.3401
  10   2.0000      -1.061128       -28.8748
  11   2.0000      -1.022223       -27.8161
  12   2.0000      -0.969400       -26.3787
  13   2.0000      -0.946555       -25.7571
  14   2.0000      -0.842270       -22.9193
  15   2.0000      -0.802844       -21.8465
  16   2.0000      -0.760089       -20.6831
  17   2.0000      -0.708383       -19.2761
  18   2.0000      -0.682416       -18.5695
  19   2.0000      -0.645530       -17.5658
  20   2.0000      -0.607488       -16.5306
  21   2.0000      -0.573820       -15.6144
  22   2.0000      -0.553663       -15.0659
  23   2.0000      -0.544636       -14.8203
  24   2.0000      -0.523244       -14.2382
  25   2.0000      -0.510985       -13.9046
  26   2.0000      -0.499781       -13.5997
  27   2.0000      -0.484463       -13.1829
  28   2.0000      -0.469955       -12.7881
  29   2.0000      -0.454900       -12.3785
  30   2.0000      -0.432790       -11.7768
  31   2.0000      -0.386490       -10.5169
  32   2.0000      -0.321937        -8.7603
  33   0.0000       0.111725         3.0402
  34   0.0000       0.139857         3.8057
  35   0.0000       0.153030         4.1642
  36   0.0000       0.164208         4.4683
  37   0.0000       0.166843         4.5400

MULLIKEN ATOMIC CHARGES
-----------------------
   0 C :   -0.405797
   1 C :   -0.210114
   2 C :    0.032100
   3 C :   -0.258593
   4 C :   -0.192145
   5 C :   -0.106347
   6 C :   -0.284223
   7 C :    0.042312
   8 C :   -0.136008
   9 H :    0.135528
  10 H :    0.125116
  11 H :    0.126404
  12 H :    0.114683
  13 H :    0.111910
  14 H :    0.095189
  15 H :    0.125218
  16 H :    0.112799
  17 H :    0.118503
  18 H :    0.129094
  19 H :    0.133295
  20 H :    0.191074
Sum of atomic charges:   -0.0000000

LOEWDIN ATOMIC CHARGES
----------------------
   0 C :   -0.318475
   1 C :   -0.273004
   2 C :   -0.234406
   3 C :   -0.212662
   4 C :   -0.195029
   5 C :   -0.157842
   6 C :   -0.080303
   7 C :   -0.072348
   8 C :   -0.082318
   9 H :    0.121769
  10 H :    0.121131
  11 H :    0.119569
  12 H :    0.138782
  13 H :    0.137808
  14 H :    0.157530
  15 H :    0.132919
  16 H :    0.141816
  17 H :    0.143683
  18 H :    0.140527
  19 H :    0.143971
  20 H :    0.126883

  Mayer bond orders larger than 0.1
B(  0-C ,  1-C ) :   0.9196 B(  0-C ,  9-H ) :   0.9407 B(  0-C , 10-H ) :   0.9382
B(  0-C , 11-H ) :   0.9407 B(  1-C ,  2-C ) :   0.8981 B(  1-C , 12-H ) :   0.9364
B(  1-C , 13-H ) :   0.9261 B(  2-C ,  3-C ) :   0.9295 B(  2-C ,  6-C ) :   0.9239
B(  2-C , 14-H ) :   0.9109 B(  3-C ,  4-C ) :   0.9585 B(  3-C , 15-H ) :   0.9322
B(  3-C , 16-H ) :   0.9254 B(  4-C ,  5-C ) :   0.9440 B(  4-C , 17-H ) :   0.9001
B(  4-C , 18-H ) :   0.9274 B(  5-C ,  6-C ) :   1.6630 B(  5-C ,  7-C ) :   1.1573
B(  5-C ,  8-C ) :  -0.1459 B(  6-C , 19-H ) :   0.9248 B(  7-C ,  8-C ) :   2.5834
B(  8-C , 20-H ) :   0.8813

MP2 TOTAL ENERGY:     -349.285218265 Eh
FINAL SINGLE POINT ENERGY      -349.285218264898

DIPOLE MOMENT
-------------
                                X             Y             Z
Electronic contribution:     -7.00871      -3.10182       6.61099
Nuclear contribution   :      7.17495       3.09891      -6.89289
                        -----------------------------------------
Total Dipole Moment    :      0.16624      -0.00291      -0.28190
                        -----------------------------------------
Magnitude (a.u.)       :      0.32727
Magnitude (Debye)      :      0.83187

                             ****ORCA TERMINATED NORMALLY****
TOTAL RUN TIME: 0 days 0 hours 31 minutes 51 seconds 779 msec
