                         Program Version 3.0.3 - RELEASE   -
|  1> ! RI-MP2 RIJK def2-TZVP def2-TZVP/C def2-TZVP/JK TIGHTSCF
|  2> % maxcore 2000
|  3> % mp2 density relaxed end
|  4> *xyz 0 1
|  5>  O        0.1504165471     1.2116783121    -0.5625108943
|  6>  C        0.0764951927    -0.0389685688     0.1113803582
|  7>  C       -1.3428951729    -0.5572024908     0.1770277671
|  8>  C       -1.9152320410    -1.3672354484    -0.9678434945
|  9>  C       -1.6733092703    -2.0217930693     0.3671767168
| 10>  C       -0.6160138471    -3.0722533075     0.5233134268
| 11>  C       -0.5756385571    -4.2686135391    -0.3307663770
| 12>  O        0.3584585237    -3.2013157078    -0.5145341634
| 13>  H       -0.1945496724     1.0748276904    -1.4511233474
| 14>  H        0.7341328974    -0.7859121863    -0.3524060751
| 15>  H        0.4573994972     0.1550004071     1.1203478940
| 16>  H       -2.0289412837     0.1395664392     0.6520119550
| 17>  H       -2.9361187265    -1.1864556909    -1.2846438903
| 18>  H       -1.2302201095    -1.6465649488    -1.7625591527
| 19>  H       -2.5481221730    -2.2223685028     0.9815125524
| 20>  H       -0.1957213035    -3.1640790704     1.5266643678
| 21>  H       -0.1512372773    -5.1963491656     0.0495168583
| 22>  H       -1.3143797739    -4.3786771323    -1.1229477918
| 23> *
| 24>
| 25>                          ****END OF INPUT****

CARTESIAN COORDINATES (ANGSTROEM)
---------------------------------
  O      0.150417    1.211678   -0.562511
  C      0.076495   -0.038969    0.111380
  C     -1.342895   -0.557202    0.177028
  C     -1.915232   -1.367235   -0.967843
  C     -1.673309   -2.021793    0.367177
  C     -0.616014   -3.072253    0.523313
  C     -0.575639   -4.268614   -0.330766
  O      0.358459   -3.201316   -0.514534
  H     -0.194550    1.074828   -1.451123
  H      0.734133   -0.785912   -0.352406
  H      0.457399    0.155000    1.120348
  H     -2.028941    0.139566    0.652012
  H     -2.936119   -1.186456   -1.284644
  H     -1.230220   -1.646565   -1.762559
  H     -2.548122   -2.222369    0.981513
  H     -0.195721   -3.164079    1.526664
  H     -0.151237   -5.196349    0.049517
  H     -1.314380   -4.378677   -1.122948

 Total Charge           Charge          ....    0
 Multiplicity           Mult            ....    1
 Number of Electrons    NEL             ....   62
 Basis Dimension        Dim             ....  308

ORBITAL ENERGIES
----------------

  NO   OCC          E(Eh)            E(eV)
   0   2.0000     -20.573768      -559.8407
   1   2.0000     -20.546950      -559.1109
   2   2.0000     -11.295329      -307.3615
   3   2.0000     -11.286550      -307.1226
   4   2.0000     -11.268803      -306.6397
   5   2.0000     -11.244893      -305.9891
   6   2.0000     -11.235452      -305.7322
   7   2.0000     -11.231223      -305.6171
   8   2.0000      -1.417296       -38.5666
   9   2.0000      -1.350756       -36.7559
  10   2.0000      -1.154627       -31.4190
  11   2.0000      -0.964541       -26.2465
  12   2.0000      -0.930554       -25.3217
  13   2.0000      -0.889715       -24.2104
  14   2.0000      -0.803000       -21.8507
  15   2.0000      -0.774288       -21.0694
  16   2.0000      -0.713455       -19.4141
  17   2.0000      -0.690355       -18.7855
  18   2.0000      -0.662099       -18.0166
  19   2.0000      -0.644561       -17.5394
  20   2.0000      -0.600614       -16.3435
  21   2.0000      -0.594140       -16.1674
  22   2.0000      -0.553229       -15.0541
  23   2.0000      -0.539849       -14.6900
  24   2.0000      -0.518314       -14.1040
  25   2.0000      -0.501298       -13.6410
  26   2.0000      -0.481675       -13.1071
  27   2.0000      -0.460234       -12.5236
  28   2.0000      -0.438237       -11.9250
  29   2.0000      -0.418129       -11.3779
  30   2.0000      -0.398901       -10.8546
  31   0.0000       0.143337         3.9004
  32   0.0000       0.145914         3.9705
  33   0.0000       0.163557         4.4506
  34   0.0000       0.167327         4.5532
  35   0.0000       0.190691         5.1890

MULLIKEN ATOMIC CHARGES
-----------------------
   0 O :   -0.473854
   1 C :   -0.047326
   2 C :   -0.137044
   3 C :   -0.319503
   4 C :   -0.111368
   5 C :    0.037249
   6 C :   -0.083555
   7 O :   -0.342815
   8 H :    0.314767
   9 H :    0.138520
  10 H :    0.110791
  11 H :    0.120939
  12 H :    0.138164
  13 H :    0.155210
  14 H :    0.124848
  15 H :    0.131585
  16 H :    0.120306
  17 H :    0.123085
Sum of atomic charges:    0.0000000

LOEWDIN ATOMIC CHARGES
----------------------
   0 O :   -0.051645
   1 C :   -0.326432
   2 C :   -0.215579
   3 C :   -0.207390
   4 C :   -0.200604
   5 C :   -0.278841
   6 C :   -0.258300
   7 O :    0.142184
   8 H :    0.173294
   9 H :    0.128332
  10 H :    0.131265
  11 H :    0.150252
  12 H :    0.131144
  13 H :    0.141724
  14 H :    0.156440
  15 H :    0.141595
  16 H :    0.119931
  17 H :    0.122630

  Mayer bond orders larger than 0.1
B(  0-O ,  1-C ) :   0.9040 B(  0-O ,  8-H ) :   0.8469 B(  1-C ,  2-C ) :   0.9369
B(  1-C ,  9-H ) :   0.9248 B(  1-C , 10-H ) :   0.9298 B(  2-C ,  3-C ) :   0.8739
B(  2-C ,  4-C ) :   0.8461 B(  2-C , 11-H ) :   0.9321 B(  3-C ,  4-C ) :   0.8962
B(  3-C , 12-H ) :   0.9255 B(  3-C , 13-H ) :   0.9195 B(  4-C ,  5-C ) :   0.9362
B(  4-C , 14-H ) :   0.9185 B(  5-C ,  6-C ) :   0.9698 B(  5-C ,  7-O ) :   0.8625
B(  5-C , 15-H ) :   0.9191 B(  6-C ,  7-O ) :   0.9065 B(  6-C , 16-H ) :   0.9240
B(  6-C , 17-H ) :   0.9082

MP2 TOTAL ENERGY:     -384.261217846 Eh
FINAL SINGLE POINT ENERGY      -384.261217845700

DIPOLE MOMENT
-------------
                                X             Y             Z
Electronic contribution:      1.87064       0.04710      -0.02862
Nuclear contribution   :     -2.71991      -0.90487       0.11799
                        -----------------------------------------
Total Dipole Moment    :     -0.84927      -0.85777       0.08937
                        -----------------------------------------
Magnitude (a.u.)       :      1.21038
Magnitude (Debye)      :      3.07654

                             ****ORCA TERMINATED NORMALLY****
TOTAL RUN TIME: 0 days 0 hours 11 minutes 24 seconds 152 msec
