                         Program Version 3.0.3 - RELEASE   -
|  1> ! RI-MP2 RIJK def2-TZVP def2-TZVP/C def2-TZVP/JK TIGHTSCF
|  2> % maxcore 2000
|  3> % mp2 density relaxed end
|  4> *xyz 0 1
|  5>  C       -0.1836783911    -1.2099363854     0.0087485673
|  6>  C       -0.0646700247    -0.0144962830     0.0175336712
|  7>  C        0.0319053856     1.4178336642    -0.0015582189
|  8>  O        0.5301933927     2.0751179862     1.1683658995
|  9>  C        1.3412266670     2.1300472319    -0.0098714122
| 10>  C        2.5962982565     1.4329502807     0.0006603023
| 11>  C        3.6644530590     0.8833200085    -0.0157858307
| 12>  H       -0.2773661528    -2.2680189137     0.0101642477
| 13>  H       -0.8034987681     1.9331468960    -0.4757754139
| 14>  H        1.3578599608     3.1088350240    -0.4894828613
| 15>  H        4.6038952551     0.3876198705    -0.0227298310
| 16> *
| 17>
| 18>                          ****END OF INPUT****

CARTESIAN COORDINATES (ANGSTROEM)
---------------------------------
  C     -0.183678   -1.209936    0.008749
  C     -0.064670   -0.014496    0.017534
  C      0.031905    1.417834   -0.001558
  O      0.530193    2.075118    1.168366
  C      1.341227    2.130047   -0.009871
  C      2.596298    1.432950    0.000660
  C      3.664453    0.883320   -0.015786
  H     -0.277366   -2.268019    0.010164
  H     -0.803499    1.933147   -0.475775
  H      1.357860    3.108835   -0.489483
  H      4.603895    0.387620   -0.022730

 Total Charge           Charge          ....    0
 Multiplicity           Mult            ....    1
 Number of Electrons    NEL             ....   48
 Basis Dimension        Dim             ....  241

ORBITAL ENERGIES
----------------

  NO   OCC          E(Eh)            E(eV)
   0   2.0000     -20.596679      -560.4641
   1   2.0000     -11.332656      -308.3772
   2   2.0000     -11.331944      -308.3579
   3   2.0000     -11.247522      -306.0606
   4   2.0000     -11.247518      -306.0605
   5   2.0000     -11.242486      -305.9236
   6   2.0000     -11.242484      -305.9236
   7   2.0000      -1.440217       -39.1903
   8   2.0000      -1.064806       -28.9748
   9   2.0000      -1.055654       -28.7258
  10   2.0000      -0.960401       -26.1338
  11   2.0000      -0.919254       -25.0142
  12   2.0000      -0.781264       -21.2593
  13   2.0000      -0.727326       -19.7915
  14   2.0000      -0.720268       -19.5995
  15   2.0000      -0.696301       -18.9473
  16   2.0000      -0.621657       -16.9161
  17   2.0000      -0.593111       -16.1394
  18   2.0000      -0.524054       -14.2602
  19   2.0000      -0.490628       -13.3507
  20   2.0000      -0.419663       -11.4196
  21   2.0000      -0.413820       -11.2606
  22   2.0000      -0.400659       -10.9025
  23   2.0000      -0.378531       -10.3004
  24   0.0000       0.134369         3.6564
  25   0.0000       0.135450         3.6858
  26   0.0000       0.151343         4.1183
  27   0.0000       0.161318         4.3897
  28   0.0000       0.163012         4.4358

MULLIKEN ATOMIC CHARGES
-----------------------
   0 C :   -0.093639
   1 C :    0.024737
   2 C :   -0.123515
   3 O :   -0.288645
   4 C :   -0.123459
   5 C :    0.024860
   6 C :   -0.093701
   7 H :    0.198475
   8 H :    0.138216
   9 H :    0.138232
  10 H :    0.198439
Sum of atomic charges:    0.0000000

LOEWDIN ATOMIC CHARGES
----------------------
   0 C :   -0.060905
   1 C :   -0.083136
   2 C :   -0.240851
   3 O :    0.198424
   4 C :   -0.240845
   5 C :   -0.083133
   6 C :   -0.060907
   7 H :    0.130278
   8 H :    0.155398
   9 H :    0.155400
  10 H :    0.130277

  Mayer bond orders larger than 0.1
B(  0-C ,  1-C ) :   2.5899 B(  0-C ,  2-C ) :  -0.1258 B(  0-C ,  7-H ) :   0.8875
B(  1-C ,  2-C ) :   1.1667 B(  2-C ,  3-O ) :   0.9278 B(  2-C ,  4-C ) :   0.9345
B(  2-C ,  8-H ) :   0.9346 B(  3-O ,  4-C ) :   0.9276 B(  4-C ,  5-C ) :   1.1667
B(  4-C ,  6-C ) :  -0.1258 B(  4-C ,  9-H ) :   0.9346 B(  5-C ,  6-C ) :   2.5900
B(  6-C , 10-H ) :   0.8876

MP2 TOTAL ENERGY:     -305.462406885 Eh
FINAL SINGLE POINT ENERGY      -305.462406884981

DIPOLE MOMENT
-------------
                                X             Y             Z
Electronic contribution:     -0.30965       0.57984       0.95958
Nuclear contribution   :      0.40986      -0.77139      -1.62432
                        -----------------------------------------
Total Dipole Moment    :      0.10022      -0.19155      -0.66473
                        -----------------------------------------
Magnitude (a.u.)       :      0.69900
Magnitude (Debye)      :      1.77673

                             ****ORCA TERMINATED NORMALLY****
TOTAL RUN TIME: 0 days 0 hours 5 minutes 49 seconds 834 msec
