                         Program Version 3.0.3 - RELEASE   -
|  1> ! RI-MP2 RIJK def2-TZVP def2-TZVP/C def2-TZVP/JK TIGHTSCF
|  2> % maxcore 2000
|  3> % mp2 density relaxed end
|  4> *xyz 0 1
|  5>  C       -0.0694570774     1.5827614868     0.1281584385
|  6>  C        0.0156908131     0.0494024935     0.0514646827
|  7>  N        0.7133046479    -0.4625957287     1.2406696448
|  8>  C       -1.3631573854    -0.4982670117    -0.0324412103
|  9>  N       -2.4235399112    -0.9591518765    -0.0222716253
| 10>  C        0.7935987139    -0.4318596513    -1.2013830986
| 11>  O        0.1152882992     0.0363815362    -2.3439661421
| 12>  C        2.2586744861     0.0213045751    -1.2441900040
| 13>  O        2.8135784223    -0.3248648393    -2.5135319027
| 14>  H        0.9145449657     1.9956399299     0.3609072169
| 15>  H       -0.4208438897     1.9828785411    -0.8234518577
| 16>  H       -0.7648132594     1.8865871758     0.9154179395
| 17>  H        0.2638266105    -0.1049440568     2.0788534549
| 18>  H        0.6285158350    -1.4750652428     1.2851929404
| 19>  H        0.7854014964    -1.5387794619    -1.1788279581
| 20>  H        0.7607124176    -0.0083025847    -3.0630310559
| 21>  H        2.3218867127     1.1108967253    -1.1893653047
| 22>  H        2.8278420844    -0.4031218698    -0.4116295871
| 23>  H        2.9762837382    -1.2743821005    -2.5210058613
| 24> *
| 25>
| 26>                          ****END OF INPUT****

CARTESIAN COORDINATES (ANGSTROEM)
---------------------------------
  C     -0.069457    1.582761    0.128158
  C      0.015691    0.049402    0.051465
  N      0.713305   -0.462596    1.240670
  C     -1.363157   -0.498267   -0.032441
  N     -2.423540   -0.959152   -0.022272
  C      0.793599   -0.431860   -1.201383
  O      0.115288    0.036382   -2.343966
  C      2.258674    0.021305   -1.244190
  O      2.813578   -0.324865   -2.513532
  H      0.914545    1.995640    0.360907
  H     -0.420844    1.982879   -0.823452
  H     -0.764813    1.886587    0.915418
  H      0.263827   -0.104944    2.078853
  H      0.628516   -1.475065    1.285193
  H      0.785401   -1.538779   -1.178828
  H      0.760712   -0.008303   -3.063031
  H      2.321887    1.110897   -1.189365
  H      2.827842   -0.403122   -0.411630
  H      2.976284   -1.274382   -2.521006

 Total Charge           Charge          ....    0
 Multiplicity           Mult            ....    1
 Number of Electrons    NEL             ....   70
 Basis Dimension        Dim             ....  339

ORBITAL ENERGIES
----------------

  NO   OCC          E(Eh)            E(eV)
   0   2.0000     -20.584321      -560.1279
   1   2.0000     -20.567459      -559.6690
   2   2.0000     -15.577393      -423.8824
   3   2.0000     -15.567393      -423.6103
   4   2.0000     -11.324380      -308.1521
   5   2.0000     -11.307267      -307.6864
   6   2.0000     -11.294607      -307.3419
   7   2.0000     -11.266280      -306.5711
   8   2.0000     -11.239888      -305.8529
   9   2.0000      -1.400545       -38.1108
  10   2.0000      -1.368458       -37.2376
  11   2.0000      -1.242587       -33.8125
  12   2.0000      -1.202006       -32.7083
  13   2.0000      -1.054617       -28.6976
  14   2.0000      -0.995624       -27.0923
  15   2.0000      -0.918822       -25.0024
  16   2.0000      -0.828556       -22.5461
  17   2.0000      -0.733335       -19.9551
  18   2.0000      -0.720666       -19.6103
  19   2.0000      -0.708773       -19.2867
  20   2.0000      -0.693600       -18.8738
  21   2.0000      -0.661389       -17.9973
  22   2.0000      -0.613719       -16.7001
  23   2.0000      -0.605606       -16.4794
  24   2.0000      -0.576797       -15.6955
  25   2.0000      -0.560692       -15.2572
  26   2.0000      -0.554364       -15.0850
  27   2.0000      -0.545284       -14.8379
  28   2.0000      -0.536394       -14.5960
  29   2.0000      -0.517309       -14.0767
  30   2.0000      -0.501045       -13.6341
  31   2.0000      -0.468750       -12.7553
  32   2.0000      -0.451197       -12.2777
  33   2.0000      -0.448821       -12.2131
  34   2.0000      -0.432077       -11.7574
  35   0.0000       0.111813         3.0426
  36   0.0000       0.124688         3.3929
  37   0.0000       0.146959         3.9989
  38   0.0000       0.170634         4.6432
  39   0.0000       0.178043         4.8448

MULLIKEN ATOMIC CHARGES
-----------------------
   0 C :   -0.475776
   1 C :    0.334488
   2 N :   -0.558860
   3 C :   -0.230843
   4 N :   -0.053852
   5 C :    0.038615
   6 O :   -0.472612
   7 C :   -0.053162
   8 O :   -0.485949
   9 H :    0.150872
  10 H :    0.173939
  11 H :    0.149304
  12 H :    0.240484
  13 H :    0.238456
  14 H :    0.081914
  15 H :    0.335162
  16 H :    0.127333
  17 H :    0.135471
  18 H :    0.325016
Sum of atomic charges:    0.0000000

LOEWDIN ATOMIC CHARGES
----------------------
   0 C :   -0.248482
   1 C :   -0.356681
   2 N :   -0.095551
   3 C :   -0.159113
   4 N :    0.063483
   5 C :   -0.332879
   6 O :    0.006060
   7 C :   -0.319903
   8 O :   -0.051363
   9 H :    0.130555
  10 H :    0.141613
  11 H :    0.132695
  12 H :    0.165194
  13 H :    0.163202
  14 H :    0.139886
  15 H :    0.183213
  16 H :    0.134272
  17 H :    0.126265
  18 H :    0.177536

  Mayer bond orders larger than 0.1
B(  0-C ,  1-C ) :   0.8773 B(  0-C ,  9-H ) :   0.9362 B(  0-C , 10-H ) :   0.9293
B(  0-C , 11-H ) :   0.9243 B(  1-C ,  2-N ) :   0.8729 B(  1-C ,  3-C ) :   0.9149
B(  1-C ,  5-C ) :   0.8756 B(  2-N , 12-H ) :   0.8899 B(  2-N , 13-H ) :   0.8863
B(  3-C ,  4-N ) :   2.8816 B(  5-C ,  6-O ) :   0.9937 B(  5-C ,  7-C ) :   0.9279
B(  5-C , 14-H ) :   0.9030 B(  6-O , 15-H ) :   0.8131 B(  7-C ,  8-O ) :   0.8820
B(  7-C , 16-H ) :   0.9249 B(  7-C , 17-H ) :   0.9364 B(  8-O , 18-H ) :   0.8421

MP2 TOTAL ENERGY:     -455.626315982 Eh
FINAL SINGLE POINT ENERGY      -455.626315982269

DIPOLE MOMENT
-------------
                                X             Y             Z
Electronic contribution:     -4.37169      -3.13136      -1.87627
Nuclear contribution   :      5.85948       3.01352       2.39033
                        -----------------------------------------
Total Dipole Moment    :      1.48779      -0.11785       0.51406
                        -----------------------------------------
Magnitude (a.u.)       :      1.57850
Magnitude (Debye)      :      4.01222

                             ****ORCA TERMINATED NORMALLY****
TOTAL RUN TIME: 0 days 0 hours 17 minutes 3 seconds 210 msec
