                         Program Version 3.0.3 - RELEASE   -
|  1> ! RI-MP2 RIJK def2-TZVP def2-TZVP/C def2-TZVP/JK TIGHTSCF
|  2> % maxcore 2000
|  3> % mp2 density relaxed end
|  4> *xyz 0 1
|  5>  C        0.1985360054     1.6063325402    -0.2048017863
|  6>  C       -0.0644381132     0.1103898683     0.0429568213
|  7>  C        0.6609296541    -0.4329631809     1.2411759699
|  8>  C        0.1235109605    -0.7564292509     2.4701134815
|  9>  C       -1.2734159658    -0.6997443585     2.9945918082
| 10>  N        1.1636906687    -1.2015680724     3.2669015217
| 11>  C        2.3457858021    -1.1707981024     2.5701770126
| 12>  N        3.5417986520    -1.5389248414     3.2242479331
| 13>  C        2.0679013740    -0.7020176606     1.3089863005
| 14>  H        1.2674795573     1.7978035264    -0.3427823790
| 15>  H       -0.3269266899     1.9591734694    -1.0989054257
| 16>  H       -0.1349473537     2.2068758993     0.6475698090
| 17>  H       -1.1430679390    -0.0504232699     0.1535065868
| 18>  H        0.2308559148    -0.4530546224    -0.8520499900
| 19>  H       -1.6241279970    -1.6794528785     3.3450137969
| 20>  H       -1.3771643994    -0.0000738507     3.8348559662
| 21>  H       -1.9601048407    -0.3684143714     2.2126176113
| 22>  H        1.1001675011    -1.4199169907     4.2464539756
| 23>  H        3.6459506356    -2.5478606325     3.2954332432
| 24>  H        4.3430258401    -1.1883926606     2.7134874271
| 25>  H        2.7827400231    -0.5867636500     0.5070353360
| 26> *
| 27>
| 28>                          ****END OF INPUT****

CARTESIAN COORDINATES (ANGSTROEM)
---------------------------------
  C      0.198536    1.606333   -0.204802
  C     -0.064438    0.110390    0.042957
  C      0.660930   -0.432963    1.241176
  C      0.123511   -0.756429    2.470113
  C     -1.273416   -0.699744    2.994592
  N      1.163691   -1.201568    3.266902
  C      2.345786   -1.170798    2.570177
  N      3.541799   -1.538925    3.224248
  C      2.067901   -0.702018    1.308986
  H      1.267480    1.797804   -0.342782
  H     -0.326927    1.959173   -1.098905
  H     -0.134947    2.206876    0.647570
  H     -1.143068   -0.050423    0.153507
  H      0.230856   -0.453055   -0.852050
  H     -1.624128   -1.679453    3.345014
  H     -1.377164   -0.000074    3.834856
  H     -1.960105   -0.368414    2.212618
  H      1.100168   -1.419917    4.246454
  H      3.645951   -2.547861    3.295433
  H      4.343026   -1.188393    2.713487
  H      2.782740   -0.586764    0.507035

 Total Charge           Charge          ....    0
 Multiplicity           Mult            ....    1
 Number of Electrons    NEL             ....   68
 Basis Dimension        Dim             ....  351

ORBITAL ENERGIES
----------------

  NO   OCC          E(Eh)            E(eV)
   0   2.0000     -15.582932      -424.0331
   1   2.0000     -15.560851      -423.4323
   2   2.0000     -11.278338      -306.8992
   3   2.0000     -11.239698      -305.8477
   4   2.0000     -11.223447      -305.4055
   5   2.0000     -11.214447      -305.1606
   6   2.0000     -11.203338      -304.8583
   7   2.0000     -11.200708      -304.7868
   8   2.0000     -11.189753      -304.4887
   9   2.0000      -1.289464       -35.0881
  10   2.0000      -1.181426       -32.1482
  11   2.0000      -1.064261       -28.9600
  12   2.0000      -1.008002       -27.4291
  13   2.0000      -0.989603       -26.9285
  14   2.0000      -0.893577       -24.3155
  15   2.0000      -0.840318       -22.8662
  16   2.0000      -0.776294       -21.1240
  17   2.0000      -0.726361       -19.7653
  18   2.0000      -0.692028       -18.8310
  19   2.0000      -0.657094       -17.8804
  20   2.0000      -0.621282       -16.9059
  21   2.0000      -0.591232       -16.0882
  22   2.0000      -0.578712       -15.7476
  23   2.0000      -0.573375       -15.6023
  24   2.0000      -0.566545       -15.4165
  25   2.0000      -0.538827       -14.6622
  26   2.0000      -0.533288       -14.5115
  27   2.0000      -0.510304       -13.8861
  28   2.0000      -0.501313       -13.6414
  29   2.0000      -0.481981       -13.1154
  30   2.0000      -0.467927       -12.7329
  31   2.0000      -0.432642       -11.7728
  32   2.0000      -0.329937        -8.9780
  33   2.0000      -0.264825        -7.2063
  34   0.0000       0.129477         3.5233
  35   0.0000       0.143872         3.9150
  36   0.0000       0.156187         4.2501
  37   0.0000       0.173336         4.7167
  38   0.0000       0.183826         5.0022

MULLIKEN ATOMIC CHARGES
-----------------------
   0 C :   -0.364829
   1 C :   -0.259345
   2 C :    0.121110
   3 C :    0.038772
   4 C :   -0.447687
   5 N :   -0.279103
   6 C :    0.216728
   7 N :   -0.546496
   8 C :   -0.338368
   9 H :    0.122385
  10 H :    0.120877
  11 H :    0.120084
  12 H :    0.107324
  13 H :    0.117082
  14 H :    0.139170
  15 H :    0.141670
  16 H :    0.138288
  17 H :    0.236714
  18 H :    0.250138
  19 H :    0.250823
  20 H :    0.114661
Sum of atomic charges:   -0.0000000

LOEWDIN ATOMIC CHARGES
----------------------
   0 C :   -0.312127
   1 C :   -0.257137
   2 C :   -0.173155
   3 C :   -0.232384
   4 C :   -0.284460
   5 N :    0.206085
   6 C :   -0.336724
   7 N :   -0.120090
   8 C :   -0.174483
   9 H :    0.120108
  10 H :    0.116051
  11 H :    0.119875
  12 H :    0.137550
  13 H :    0.141316
  14 H :    0.127572
  15 H :    0.127518
  16 H :    0.133976
  17 H :    0.190172
  18 H :    0.164293
  19 H :    0.169289
  20 H :    0.136754

  Mayer bond orders larger than 0.1
B(  0-C ,  1-C ) :   0.9201 B(  0-C ,  9-H ) :   0.9396 B(  0-C , 10-H ) :   0.9362
B(  0-C , 11-H ) :   0.9382 B(  1-C ,  2-C ) :   0.8549 B(  1-C , 12-H ) :   0.9537
B(  1-C , 13-H ) :   0.9426 B(  2-C ,  3-C ) :   1.4835 B(  2-C ,  8-C ) :   1.2082
B(  3-C ,  4-C ) :   0.8396 B(  3-C ,  5-N ) :   1.1324 B(  4-C , 14-H ) :   0.9398
B(  4-C , 15-H ) :   0.9393 B(  4-C , 16-H ) :   0.9542 B(  5-N ,  6-C ) :   1.1118
B(  5-N , 17-H ) :   0.8698 B(  6-C ,  7-N ) :   1.0316 B(  6-C ,  8-C ) :   1.4971
B(  7-N , 18-H ) :   0.8744 B(  7-N , 19-H ) :   0.8897 B(  8-C , 20-H ) :   0.9339

MP2 TOTAL ENERGY:     -382.636202594 Eh
FINAL SINGLE POINT ENERGY      -382.636202594429

DIPOLE MOMENT
-------------
                                X             Y             Z
Electronic contribution:      4.71263      -4.19715       4.10011
Nuclear contribution   :     -4.61783       3.72407      -3.77374
                        -----------------------------------------
Total Dipole Moment    :      0.09481      -0.47309       0.32637
                        -----------------------------------------
Magnitude (a.u.)       :      0.58251
Magnitude (Debye)      :      1.48061

                             ****ORCA TERMINATED NORMALLY****
TOTAL RUN TIME: 0 days 0 hours 18 minutes 1 seconds 105 msec
