                         Program Version 3.0.3 - RELEASE   -
|  1> ! RI-MP2 RIJK def2-TZVP def2-TZVP/C def2-TZVP/JK TIGHTSCF
|  2> % maxcore 2000
|  3> % mp2 density relaxed end
|  4> *xyz 0 1
|  5>  C        0.0241945037    -1.1896220096    -0.0151515675
|  6>  C        0.0372690130     0.0108300902     0.0409830694
|  7>  C        0.0496681781     1.4434292037     0.0839876544
|  8>  C        0.5178994308     2.2455432708     1.2670303225
|  9>  N        1.5446922769     1.5091983657     2.0030342005
| 10>  C        2.4577682705     1.5819165959     0.8121477316
| 11>  C        1.3541468652     2.2546290627    -0.0236837408
| 12>  C        1.5471782532     3.2429584335    -1.0262168498
| 13>  N        1.7082832772     4.0572786560    -1.8342126401
| 14>  H        0.0066210753    -2.2508236032    -0.0535434209
| 15>  H       -0.7575301595     1.9314774693    -0.4567065637
| 16>  H       -0.0862704333     3.0280163927     1.7105098762
| 17>  H        1.9120544996     2.0627422687     2.7687408275
| 18>  H        3.3053421203     2.2533889651     0.9652750326
| 19>  H        2.8061587992     0.6073653086     0.4606394883
| 20> *
| 21>
| 22>                          ****END OF INPUT****

CARTESIAN COORDINATES (ANGSTROEM)
---------------------------------
  C      0.024195   -1.189622   -0.015152
  C      0.037269    0.010830    0.040983
  C      0.049668    1.443429    0.083988
  C      0.517899    2.245543    1.267030
  N      1.544692    1.509198    2.003034
  C      2.457768    1.581917    0.812148
  C      1.354147    2.254629   -0.023684
  C      1.547178    3.242958   -1.026217
  N      1.708283    4.057279   -1.834213
  H      0.006621   -2.250824   -0.053543
  H     -0.757530    1.931477   -0.456707
  H     -0.086270    3.028016    1.710510
  H      1.912054    2.062742    2.768741
  H      3.305342    2.253389    0.965275
  H      2.806159    0.607365    0.460639

 Total Charge           Charge          ....    0
 Multiplicity           Mult            ....    1
 Number of Electrons    NEL             ....   62
 Basis Dimension        Dim             ....  315

ORBITAL ENERGIES
----------------

  NO   OCC          E(Eh)            E(eV)
   0   2.0000     -15.578363      -423.9088
   1   2.0000     -15.576303      -423.8528
   2   2.0000     -11.314722      -307.8892
   3   2.0000     -11.299812      -307.4835
   4   2.0000     -11.294855      -307.3486
   5   2.0000     -11.291824      -307.2661
   6   2.0000     -11.281604      -306.9880
   7   2.0000     -11.246748      -306.0396
   8   2.0000     -11.236468      -305.7598
   9   2.0000      -1.304149       -35.4877
  10   2.0000      -1.221197       -33.2305
  11   2.0000      -1.125659       -30.6308
  12   2.0000      -1.039129       -28.2761
  13   2.0000      -0.981665       -26.7125
  14   2.0000      -0.893464       -24.3124
  15   2.0000      -0.850483       -23.1428
  16   2.0000      -0.761709       -20.7272
  17   2.0000      -0.737725       -20.0745
  18   2.0000      -0.687676       -18.7126
  19   2.0000      -0.656929       -17.8759
  20   2.0000      -0.623117       -16.9559
  21   2.0000      -0.591140       -16.0857
  22   2.0000      -0.567426       -15.4404
  23   2.0000      -0.559028       -15.2119
  24   2.0000      -0.530018       -14.4225
  25   2.0000      -0.513382       -13.9698
  26   2.0000      -0.461978       -12.5711
  27   2.0000      -0.447816       -12.1857
  28   2.0000      -0.407865       -11.0986
  29   2.0000      -0.381628       -10.3846
  30   2.0000      -0.379032       -10.3140
  31   0.0000       0.116701         3.1756
  32   0.0000       0.135036         3.6745
  33   0.0000       0.142422         3.8755
  34   0.0000       0.145399         3.9565
  35   0.0000       0.160623         4.3708

MULLIKEN ATOMIC CHARGES
-----------------------
   0 C :   -0.136941
   1 C :    0.044798
   2 C :   -0.322859
   3 C :    0.021688
   4 N :   -0.334878
   5 C :   -0.127474
   6 C :    0.141057
   7 C :   -0.255088
   8 N :   -0.048858
   9 H :    0.195181
  10 H :    0.164366
  11 H :    0.154227
  12 H :    0.218857
  13 H :    0.152458
  14 H :    0.133466
Sum of atomic charges:    0.0000000

LOEWDIN ATOMIC CHARGES
----------------------
   0 C :   -0.074245
   1 C :   -0.081444
   2 C :   -0.140154
   3 C :   -0.155545
   4 N :    0.009657
   5 C :   -0.183962
   6 C :   -0.173068
   7 C :   -0.166071
   8 N :    0.070475
   9 H :    0.129257
  10 H :    0.182476
  11 H :    0.142224
  12 H :    0.169940
  13 H :    0.136495
  14 H :    0.133964

  Mayer bond orders larger than 0.1
B(  0-C ,  1-C ) :   2.5710 B(  0-C ,  2-C ) :  -0.1245 B(  0-C ,  9-H ) :   0.8966
B(  1-C ,  2-C ) :   1.1569 B(  2-C ,  3-C ) :   0.9075 B(  2-C ,  6-C ) :   0.8084
B(  2-C , 10-H ) :   0.9282 B(  3-C ,  4-N ) :   1.0236 B(  3-C ,  6-C ) :   0.8105
B(  3-C , 11-H ) :   0.9042 B(  4-N ,  5-C ) :   0.9271 B(  4-N , 12-H ) :   0.8719
B(  5-C ,  6-C ) :   0.9386 B(  5-C , 13-H ) :   0.9218 B(  5-C , 14-H ) :   0.9082
B(  6-C ,  7-C ) :   0.8881 B(  7-C ,  8-N ) :   2.8660

MP2 TOTAL ENERGY:     -378.910192910 Eh
FINAL SINGLE POINT ENERGY      -378.910192909913

DIPOLE MOMENT
-------------
                                X             Y             Z
Electronic contribution:     -0.83239       1.95655      -2.86382
Nuclear contribution   :      0.80519      -2.39755       4.03662
                        -----------------------------------------
Total Dipole Moment    :     -0.02720      -0.44100       1.17280
                        -----------------------------------------
Magnitude (a.u.)       :      1.25327
Magnitude (Debye)      :      3.18555

                             ****ORCA TERMINATED NORMALLY****
TOTAL RUN TIME: 0 days 0 hours 14 minutes 51 seconds 668 msec
