                         Program Version 3.0.3 - RELEASE   -
|  1> ! RI-MP2 RIJK def2-TZVP def2-TZVP/C def2-TZVP/JK TIGHTSCF
|  2> % maxcore 2000
|  3> % mp2 density relaxed end
|  4> *xyz 0 1
|  5>  C       -0.0653745134     1.4436666872     0.0636517548
|  6>  C       -0.0058731949    -0.0087317813     0.0177515324
|  7>  C        0.0606037625    -1.2143115297    -0.0238734375
|  8>  C        0.0697190611    -2.6275093259    -0.0718584345
|  9>  C        1.1411564765    -3.4300611093    -0.2192678221
| 10>  C        0.7812822615    -4.8685804657    -0.1382110595
| 11>  C        0.1952767209    -5.3140376591     1.1918830450
| 12>  C       -0.7259272946    -4.8923131422     0.0797855582
| 13>  C       -1.2148499837    -3.4468723115     0.0546462535
| 14>  H        0.5701714225     1.8452939154     0.8613900718
| 15>  H        0.2727974223     1.8865596029    -0.8804067807
| 16>  H       -1.0871227806     1.7949614973     0.2457703814
| 17>  H        2.1576237756    -3.0766922047    -0.3445190425
| 18>  H        1.2976631548    -5.5972664610    -0.7531703540
| 19>  H        0.2331987588    -6.3737201287     1.4231117171
| 20>  H        0.3285217264    -4.6570312318     2.0456752148
| 21>  H       -1.3376353902    -5.6546938555    -0.3875608135
| 22>  H       -1.7785699630    -3.1725760782     0.9541911694
| 23>  H       -1.8771477324    -3.2559651682    -0.7991066637
| 24> *
| 25>
| 26>                          ****END OF INPUT****

CARTESIAN COORDINATES (ANGSTROEM)
---------------------------------
  C     -0.065375    1.443667    0.063652
  C     -0.005873   -0.008732    0.017752
  C      0.060604   -1.214312   -0.023873
  C      0.069719   -2.627509   -0.071858
  C      1.141156   -3.430061   -0.219268
  C      0.781282   -4.868580   -0.138211
  C      0.195277   -5.314038    1.191883
  C     -0.725927   -4.892313    0.079786
  C     -1.214850   -3.446872    0.054646
  H      0.570171    1.845294    0.861390
  H      0.272797    1.886560   -0.880407
  H     -1.087123    1.794961    0.245770
  H      2.157624   -3.076692   -0.344519
  H      1.297663   -5.597266   -0.753170
  H      0.233199   -6.373720    1.423112
  H      0.328522   -4.657031    2.045675
  H     -1.337635   -5.654694   -0.387561
  H     -1.778570   -3.172576    0.954191
  H     -1.877148   -3.255965   -0.799107

 Total Charge           Charge          ....    0
 Multiplicity           Mult            ....    1
 Number of Electrons    NEL             ....   64
 Basis Dimension        Dim             ....  339

ORBITAL ENERGIES
----------------

  NO   OCC          E(Eh)            E(eV)
   0   2.0000     -11.245135      -305.9957
   1   2.0000     -11.243014      -305.9380
   2   2.0000     -11.232907      -305.6630
   3   2.0000     -11.231866      -305.6346
   4   2.0000     -11.231279      -305.6186
   5   2.0000     -11.229366      -305.5666
   6   2.0000     -11.226623      -305.4919
   7   2.0000     -11.224134      -305.4242
   8   2.0000     -11.216204      -305.2084
   9   2.0000      -1.183623       -32.2080
  10   2.0000      -1.074788       -29.2465
  11   2.0000      -1.032602       -28.0985
  12   2.0000      -0.961095       -26.1527
  13   2.0000      -0.949458       -25.8361
  14   2.0000      -0.841767       -22.9057
  15   2.0000      -0.772646       -21.0248
  16   2.0000      -0.758913       -20.6511
  17   2.0000      -0.704319       -19.1655
  18   2.0000      -0.642140       -17.4735
  19   2.0000      -0.620316       -16.8797
  20   2.0000      -0.588658       -16.0182
  21   2.0000      -0.584965       -15.9177
  22   2.0000      -0.584635       -15.9087
  23   2.0000      -0.569732       -15.5032
  24   2.0000      -0.535907       -14.5828
  25   2.0000      -0.516085       -14.0434
  26   2.0000      -0.495972       -13.4961
  27   2.0000      -0.458131       -12.4664
  28   2.0000      -0.408140       -11.1061
  29   2.0000      -0.403760       -10.9869
  30   2.0000      -0.366778        -9.9805
  31   2.0000      -0.302000        -8.2178
  32   0.0000       0.121035         3.2935
  33   0.0000       0.138279         3.7628
  34   0.0000       0.154489         4.2039
  35   0.0000       0.170505         4.6397
  36   0.0000       0.183621         4.9966

MULLIKEN ATOMIC CHARGES
-----------------------
   0 C :   -0.472123
   1 C :    0.058886
   2 C :    0.041237
   3 C :   -0.159103
   4 C :   -0.215003
   5 C :   -0.054470
   6 C :   -0.278724
   7 C :   -0.112589
   8 C :   -0.201041
   9 H :    0.162423
  10 H :    0.162581
  11 H :    0.161554
  12 H :    0.130189
  13 H :    0.130088
  14 H :    0.129003
  15 H :    0.137014
  16 H :    0.129648
  17 H :    0.128389
  18 H :    0.122041
Sum of atomic charges:   -0.0000000

LOEWDIN ATOMIC CHARGES
----------------------
   0 C :   -0.295919
   1 C :   -0.084215
   2 C :   -0.052088
   3 C :   -0.151727
   4 C :   -0.089127
   5 C :   -0.185901
   6 C :   -0.197333
   7 C :   -0.184805
   8 C :   -0.176878
   9 H :    0.141250
  10 H :    0.141562
  11 H :    0.140944
  12 H :    0.144183
  13 H :    0.143492
  14 H :    0.133372
  15 H :    0.136742
  16 H :    0.143266
  17 H :    0.147071
  18 H :    0.146111

  Mayer bond orders larger than 0.1
B(  0-C ,  1-C ) :   0.8503 B(  0-C ,  9-H ) :   0.9458 B(  0-C , 10-H ) :   0.9447
B(  0-C , 11-H ) :   0.9446 B(  1-C ,  2-C ) :   2.6085 B(  1-C ,  3-C ) :  -0.1650
B(  2-C ,  3-C ) :   1.1325 B(  3-C ,  4-C ) :   1.6775 B(  3-C ,  8-C ) :   0.9811
B(  4-C ,  5-C ) :   0.9572 B(  4-C , 12-H ) :   0.9349 B(  5-C ,  6-C ) :   0.8565
B(  5-C ,  7-C ) :   0.8753 B(  5-C , 13-H ) :   0.9263 B(  6-C ,  7-C ) :   0.8958
B(  6-C , 14-H ) :   0.9274 B(  6-C , 15-H ) :   0.9253 B(  7-C ,  8-C ) :   0.9424
B(  7-C , 16-H ) :   0.9293 B(  8-C , 17-H ) :   0.9070 B(  8-C , 18-H ) :   0.9068

MP2 TOTAL ENERGY:     -348.071188401 Eh
FINAL SINGLE POINT ENERGY      -348.071188401099

DIPOLE MOMENT
-------------
                                X             Y             Z
Electronic contribution:      1.17735      -0.62651      -1.11772
Nuclear contribution   :     -1.27242       0.69008       1.11973
                        -----------------------------------------
Total Dipole Moment    :     -0.09506       0.06357       0.00201
                        -----------------------------------------
Magnitude (a.u.)       :      0.11438
Magnitude (Debye)      :      0.29073

                             ****ORCA TERMINATED NORMALLY****
TOTAL RUN TIME: 0 days 0 hours 23 minutes 54 seconds 636 msec
