                         Program Version 3.0.3 - RELEASE   -
|  1> ! RI-MP2 RIJK def2-TZVP def2-TZVP/C def2-TZVP/JK TIGHTSCF
|  2> % maxcore 2000
|  3> % mp2 density relaxed end
|  4> *xyz 0 1
|  5>  C       -0.0499116367     1.5909908496     0.0118963618
|  6>  C        0.0453320637     0.0674793463     0.0125322283
|  7>  C        1.0343245786    -0.5740688420    -1.0015264602
|  8>  C        2.3668074378    -0.1503631783    -0.3709935621
|  9>  C        2.1999506225    -0.1602319946     0.9556906046
| 10>  C        0.7536216592    -0.5906832114     1.2303780974
| 11>  C        0.7369312009    -2.0970986819     0.8440653457
| 12>  C       -0.3377556034    -2.6658880111    -0.0559948877
| 13>  C        0.9252742073    -2.0859498738    -0.6534983290
| 14>  H        0.9243668282     2.0677684214     0.1379314232
| 15>  H       -0.4833702921     1.9465854944    -0.9295278643
| 16>  H       -0.7035506470     1.9335517638     0.8218484708
| 17>  H       -0.9685996872    -0.3159430287    -0.1178419572
| 18>  H        0.8951122401    -0.3206441648    -2.0539586108
| 19>  H        3.2806817627     0.0330367841    -0.9217134046
| 20>  H        2.9486653555     0.0133968101     1.7181690771
| 21>  H        0.3576872478    -0.3524546338     2.2191655693
| 22>  H        1.2973112033    -2.7771013806     1.4767217823
| 23>  H       -0.4049356736    -3.7501401389    -0.0725169963
| 24>  H       -1.3012519942    -2.1845977585    -0.1735859355
| 25>  H        1.6261031764    -2.7576420114    -1.1375974830
| 26> *
| 27>
| 28>                          ****END OF INPUT****

CARTESIAN COORDINATES (ANGSTROEM)
---------------------------------
  C     -0.049912    1.590991    0.011896
  C      0.045332    0.067479    0.012532
  C      1.034325   -0.574069   -1.001526
  C      2.366807   -0.150363   -0.370994
  C      2.199951   -0.160232    0.955691
  C      0.753622   -0.590683    1.230378
  C      0.736931   -2.097099    0.844065
  C     -0.337756   -2.665888   -0.055995
  C      0.925274   -2.085950   -0.653498
  H      0.924367    2.067768    0.137931
  H     -0.483370    1.946585   -0.929528
  H     -0.703551    1.933552    0.821848
  H     -0.968600   -0.315943   -0.117842
  H      0.895112   -0.320644   -2.053959
  H      3.280682    0.033037   -0.921713
  H      2.948665    0.013397    1.718169
  H      0.357687   -0.352455    2.219166
  H      1.297311   -2.777101    1.476722
  H     -0.404936   -3.750140   -0.072517
  H     -1.301252   -2.184598   -0.173586
  H      1.626103   -2.757642   -1.137597

 Total Charge           Charge          ....    0
 Multiplicity           Mult            ....    1
 Number of Electrons    NEL             ....   66
 Basis Dimension        Dim             ....  351

ORBITAL ENERGIES
----------------

  NO   OCC          E(Eh)            E(eV)
   0   2.0000     -11.231077      -305.6131
   1   2.0000     -11.231074      -305.6131
   2   2.0000     -11.223718      -305.4129
   3   2.0000     -11.222750      -305.3865
   4   2.0000     -11.222662      -305.3842
   5   2.0000     -11.222554      -305.3812
   6   2.0000     -11.217748      -305.2504
   7   2.0000     -11.216047      -305.2042
   8   2.0000     -11.205422      -304.9150
   9   2.0000      -1.198135       -32.6029
  10   2.0000      -1.086411       -29.5627
  11   2.0000      -0.999150       -27.1883
  12   2.0000      -0.960943       -26.1486
  13   2.0000      -0.904829       -24.6216
  14   2.0000      -0.823466       -22.4076
  15   2.0000      -0.769753       -20.9461
  16   2.0000      -0.735292       -20.0083
  17   2.0000      -0.702898       -19.1268
  18   2.0000      -0.687913       -18.7191
  19   2.0000      -0.662795       -18.0356
  20   2.0000      -0.620892       -16.8953
  21   2.0000      -0.557950       -15.1826
  22   2.0000      -0.556922       -15.1546
  23   2.0000      -0.542594       -14.7647
  24   2.0000      -0.525334       -14.2951
  25   2.0000      -0.509172       -13.8553
  26   2.0000      -0.481934       -13.1141
  27   2.0000      -0.473454       -12.8833
  28   2.0000      -0.465137       -12.6570
  29   2.0000      -0.442749       -12.0478
  30   2.0000      -0.393844       -10.7170
  31   2.0000      -0.386663       -10.5216
  32   2.0000      -0.334997        -9.1157
  33   0.0000       0.142001         3.8640
  34   0.0000       0.144917         3.9434
  35   0.0000       0.159654         4.3444
  36   0.0000       0.173298         4.7157
  37   0.0000       0.176164         4.7937

MULLIKEN ATOMIC CHARGES
-----------------------
   0 C :   -0.447146
   1 C :   -0.052974
   2 C :    0.019188
   3 C :   -0.237280
   4 C :   -0.237277
   5 C :    0.019188
   6 C :   -0.138886
   7 C :   -0.263906
   8 C :   -0.138886
   9 H :    0.145937
  10 H :    0.129484
  11 H :    0.129483
  12 H :    0.089442
  13 H :    0.120907
  14 H :    0.126396
  15 H :    0.126396
  16 H :    0.120907
  17 H :    0.117627
  18 H :    0.126995
  19 H :    0.126777
  20 H :    0.117627
Sum of atomic charges:    0.0000000

LOEWDIN ATOMIC CHARGES
----------------------
   0 C :   -0.289295
   1 C :   -0.208888
   2 C :   -0.167460
   3 C :   -0.125006
   4 C :   -0.125006
   5 C :   -0.167460
   6 C :   -0.168771
   7 C :   -0.207161
   8 C :   -0.168772
   9 H :    0.127398
  10 H :    0.124149
  11 H :    0.124149
  12 H :    0.150648
  13 H :    0.143274
  14 H :    0.133168
  15 H :    0.133168
  16 H :    0.143274
  17 H :    0.142036
  18 H :    0.136844
  19 H :    0.127675
  20 H :    0.142036

  Mayer bond orders larger than 0.1
B(  0-C ,  1-C ) :   0.8823 B(  0-C ,  9-H ) :   0.9365 B(  0-C , 10-H ) :   0.9406
B(  0-C , 11-H ) :   0.9406 B(  1-C ,  2-C ) :   0.9279 B(  1-C ,  5-C ) :   0.9279
B(  1-C , 12-H ) :   0.9254 B(  2-C ,  3-C ) :   0.9047 B(  2-C ,  8-C ) :   0.8827
B(  2-C , 13-H ) :   0.9165 B(  3-C ,  4-C ) :   1.7714 B(  3-C , 14-H ) :   0.9332
B(  4-C ,  5-C ) :   0.9047 B(  4-C , 15-H ) :   0.9332 B(  5-C ,  6-C ) :   0.8827
B(  5-C , 16-H ) :   0.9165 B(  6-C ,  7-C ) :   0.8970 B(  6-C ,  8-C ) :   0.9021
B(  6-C , 17-H ) :   0.9314 B(  7-C ,  8-C ) :   0.8970 B(  7-C , 18-H ) :   0.9258
B(  7-C , 19-H ) :   0.9129 B(  8-C , 20-H ) :   0.9314

MP2 TOTAL ENERGY:     -349.296443766 Eh
FINAL SINGLE POINT ENERGY      -349.296443765754

DIPOLE MOMENT
-------------
                                X             Y             Z
Electronic contribution:      2.31665      -2.11584       0.27560
Nuclear contribution   :     -2.33262       2.04491      -0.27814
                        -----------------------------------------
Total Dipole Moment    :     -0.01597      -0.07092      -0.00254
                        -----------------------------------------
Magnitude (a.u.)       :      0.07274
Magnitude (Debye)      :      0.18490

                             ****ORCA TERMINATED NORMALLY****
TOTAL RUN TIME: 0 days 0 hours 21 minutes 42 seconds 450 msec
