                         Program Version 3.0.3 - RELEASE   -
|  1> ! RI-MP2 RIJK def2-TZVP def2-TZVP/C def2-TZVP/JK TIGHTSCF
|  2> % maxcore 2000
|  3> % mp2 density relaxed end
|  4> *xyz 0 1
|  5>  N        0.1488651603     1.3834772331    -0.1543783597
|  6>  C       -0.0036997532     0.0047341572    -0.0597439743
|  7>  C       -1.1036346501    -0.8011381268    -0.0231713022
|  8>  O       -2.3951652946    -0.3394769562     0.0767096769
|  9>  C       -0.6193220125    -2.1537781889    -0.0167181584
| 10>  C        0.7331047166    -2.0631416405    -0.0411903352
| 11>  O        1.1233418937    -0.7488259714    -0.0696817747
| 12>  H        0.7863444040     1.7569798580     0.5411488332
| 13>  H       -0.7535129240     1.8347335560    -0.0633738362
| 14>  H       -2.9148712853    -0.7076957083    -0.6453478781
| 15>  H       -1.2079319669    -3.0574190446     0.0192678126
| 16>  H        1.5325778720    -2.7835136976    -0.0359886039
| 17> *
| 18>
| 19>                          ****END OF INPUT****

CARTESIAN COORDINATES (ANGSTROEM)
---------------------------------
  N      0.148865    1.383477   -0.154378
  C     -0.003700    0.004734   -0.059744
  C     -1.103635   -0.801138   -0.023171
  O     -2.395165   -0.339477    0.076710
  C     -0.619322   -2.153778   -0.016718
  C      0.733105   -2.063142   -0.041190
  O      1.123342   -0.748826   -0.069682
  H      0.786344    1.756980    0.541149
  H     -0.753513    1.834734   -0.063374
  H     -2.914871   -0.707696   -0.645348
  H     -1.207932   -3.057419    0.019268
  H      1.532578   -2.783514   -0.035989

 Total Charge           Charge          ....    0
 Multiplicity           Mult            ....    1
 Number of Electrons    NEL             ....   52
 Basis Dimension        Dim             ....  247

ORBITAL ENERGIES
----------------

  NO   OCC          E(Eh)            E(eV)
   0   2.0000     -20.617170      -561.0217
   1   2.0000     -20.582037      -560.0657
   2   2.0000     -15.570566      -423.6966
   3   2.0000     -11.315180      -307.9017
   4   2.0000     -11.280740      -306.9645
   5   2.0000     -11.270337      -306.6815
   6   2.0000     -11.230717      -305.6033
   7   2.0000      -1.459573       -39.7170
   8   2.0000      -1.388886       -37.7935
   9   2.0000      -1.210280       -32.9334
  10   2.0000      -1.072754       -29.1911
  11   2.0000      -0.973435       -26.4885
  12   2.0000      -0.824085       -22.4245
  13   2.0000      -0.776375       -21.1262
  14   2.0000      -0.740693       -20.1553
  15   2.0000      -0.691303       -18.8113
  16   2.0000      -0.662749       -18.0343
  17   2.0000      -0.640357       -17.4250
  18   2.0000      -0.619031       -16.8447
  19   2.0000      -0.598597       -16.2886
  20   2.0000      -0.581996       -15.8369
  21   2.0000      -0.563870       -15.3437
  22   2.0000      -0.499214       -13.5843
  23   2.0000      -0.468287       -12.7427
  24   2.0000      -0.386399       -10.5144
  25   2.0000      -0.283555        -7.7159
  26   0.0000       0.130661         3.5555
  27   0.0000       0.146097         3.9755
  28   0.0000       0.164154         4.4669
  29   0.0000       0.179954         4.8968
  30   0.0000       0.194670         5.2972

MULLIKEN ATOMIC CHARGES
-----------------------
   0 N :   -0.510474
   1 C :    0.248567
   2 C :    0.059293
   3 O :   -0.479476
   4 C :   -0.209300
   5 C :   -0.034806
   6 O :   -0.228206
   7 H :    0.258040
   8 H :    0.262349
   9 H :    0.343614
  10 H :    0.140792
  11 H :    0.149607
Sum of atomic charges:   -0.0000000

LOEWDIN ATOMIC CHARGES
----------------------
   0 N :   -0.085580
   1 C :   -0.351286
   2 C :   -0.320389
   3 O :    0.030274
   4 C :   -0.185702
   5 C :   -0.249297
   6 O :    0.344481
   7 H :    0.172404
   8 H :    0.179260
   9 H :    0.191638
  10 H :    0.143598
  11 H :    0.130599

  Mayer bond orders larger than 0.1
B(  0-N ,  1-C ) :   1.0852 B(  0-N ,  7-H ) :   0.8675 B(  0-N ,  8-H ) :   0.8733
B(  1-C ,  2-C ) :   1.4820 B(  1-C ,  6-O ) :   1.0422 B(  2-C ,  3-O ) :   1.0394
B(  2-C ,  4-C ) :   1.2005 B(  3-O ,  9-H ) :   0.8318 B(  4-C ,  5-C ) :   1.5519
B(  4-C , 10-H ) :   0.9184 B(  5-C ,  6-O ) :   1.0213 B(  5-C , 11-H ) :   0.9304

MP2 TOTAL ENERGY:     -359.944984978 Eh
FINAL SINGLE POINT ENERGY      -359.944984978333

DIPOLE MOMENT
-------------
                                X             Y             Z
Electronic contribution:      0.51277      -0.23461      -0.01203
Nuclear contribution   :     -0.85414       0.13768       0.01366
                        -----------------------------------------
Total Dipole Moment    :     -0.34137      -0.09692       0.00163
                        -----------------------------------------
Magnitude (a.u.)       :      0.35487
Magnitude (Debye)      :      0.90200

                             ****ORCA TERMINATED NORMALLY****
TOTAL RUN TIME: 0 days 0 hours 6 minutes 7 seconds 650 msec
