                         Program Version 3.0.3 - RELEASE   -
|  1> ! RI-MP2 RIJK def2-TZVP def2-TZVP/C def2-TZVP/JK TIGHTSCF
|  2> % maxcore 2000
|  3> % mp2 density relaxed end
|  4> *xyz 0 1
|  5>  C       -0.2408261177     1.4884305318     0.1274864134
|  6>  N       -0.0263890309     0.0565100656    -0.0031732232
|  7>  C        0.6761249539    -0.5668988498     0.8237177559
|  8>  C        1.0020727507    -2.0422522216     0.8060956196
|  9>  C        1.4874059295    -2.3260617950     2.2347088352
| 10>  C        2.6219759255    -3.3361580870     2.3953685889
| 11>  C        1.8635278454    -0.9386467543     2.7478263824
| 12>  O        2.5121518916    -0.6449142050     3.7044947790
| 13>  O        1.3093948310     0.0186483824     1.9250986069
| 14>  H        0.1893312073     1.9896943419    -0.7466650404
| 15>  H       -1.3179701723     1.6843310865     0.1060089850
| 16>  H        0.1865785433     1.9294198378     1.0339158294
| 17>  H        0.1391851716    -2.6283449574     0.4896240981
| 18>  H        1.8068697571    -2.2212182444     0.0827828420
| 19>  H        0.6364732088    -2.6407919026     2.8542725175
| 20>  H        3.4776378792    -3.0661426083     1.7681610483
| 21>  H        2.9598912142    -3.3628419476     3.4338630122
| 22>  H        2.2918020316    -4.3382421128     2.1083228099
| 23> *
| 24>
| 25>                          ****END OF INPUT****

CARTESIAN COORDINATES (ANGSTROEM)
---------------------------------
  C     -0.240826    1.488431    0.127486
  N     -0.026389    0.056510   -0.003173
  C      0.676125   -0.566899    0.823718
  C      1.002073   -2.042252    0.806096
  C      1.487406   -2.326062    2.234709
  C      2.621976   -3.336158    2.395369
  C      1.863528   -0.938647    2.747826
  O      2.512152   -0.644914    3.704495
  O      1.309395    0.018648    1.925099
  H      0.189331    1.989694   -0.746665
  H     -1.317970    1.684331    0.106009
  H      0.186579    1.929420    1.033916
  H      0.139185   -2.628345    0.489624
  H      1.806870   -2.221218    0.082783
  H      0.636473   -2.640792    2.854273
  H      3.477638   -3.066143    1.768161
  H      2.959891   -3.362842    3.433863
  H      2.291802   -4.338242    2.108323

 Total Charge           Charge          ....    0
 Multiplicity           Mult            ....    1
 Number of Electrons    NEL             ....   68
 Basis Dimension        Dim             ....  333

ORBITAL ENERGIES
----------------

  NO   OCC          E(Eh)            E(eV)
   0   2.0000     -20.628386      -561.3269
   1   2.0000     -20.560428      -559.4777
   2   2.0000     -15.558188      -423.3598
   3   2.0000     -11.394615      -310.0632
   4   2.0000     -11.350944      -308.8749
   5   2.0000     -11.274273      -306.7886
   6   2.0000     -11.262500      -306.4682
   7   2.0000     -11.249077      -306.1030
   8   2.0000     -11.241896      -305.9075
   9   2.0000      -1.485827       -40.4314
  10   2.0000      -1.394344       -37.9420
  11   2.0000      -1.233519       -33.5658
  12   2.0000      -1.121821       -30.5263
  13   2.0000      -1.005348       -27.3569
  14   2.0000      -0.945914       -25.7396
  15   2.0000      -0.893221       -24.3058
  16   2.0000      -0.836321       -22.7575
  17   2.0000      -0.765132       -20.8203
  18   2.0000      -0.700987       -19.0748
  19   2.0000      -0.692549       -18.8452
  20   2.0000      -0.658772       -17.9261
  21   2.0000      -0.636144       -17.3104
  22   2.0000      -0.624921       -17.0050
  23   2.0000      -0.598723       -16.2921
  24   2.0000      -0.588651       -16.0180
  25   2.0000      -0.577599       -15.7173
  26   2.0000      -0.558386       -15.1945
  27   2.0000      -0.551696       -15.0124
  28   2.0000      -0.534682       -14.5494
  29   2.0000      -0.516119       -14.0443
  30   2.0000      -0.494075       -13.4445
  31   2.0000      -0.455907       -12.4059
  32   2.0000      -0.421287       -11.4638
  33   2.0000      -0.402983       -10.9657
  34   0.0000       0.112848         3.0708
  35   0.0000       0.149663         4.0725
  36   0.0000       0.151585         4.1248
  37   0.0000       0.160084         4.3561
  38   0.0000       0.168392         4.5822

MULLIKEN ATOMIC CHARGES
-----------------------
   0 C :   -0.274413
   1 N :   -0.227039
   2 C :    0.138593
   3 C :   -0.198207
   4 C :   -0.050017
   5 C :   -0.415740
   6 C :    0.231566
   7 O :   -0.259954
   8 O :   -0.213941
   9 H :    0.140152
  10 H :    0.139956
  11 H :    0.138779
  12 H :    0.147257
  13 H :    0.139064
  14 H :    0.129913
  15 H :    0.132522
  16 H :    0.159384
  17 H :    0.142126
Sum of atomic charges:    0.0000000

LOEWDIN ATOMIC CHARGES
----------------------
   0 C :   -0.324431
   1 N :    0.092486
   2 C :   -0.337250
   3 C :   -0.188371
   4 C :   -0.242688
   5 C :   -0.278662
   6 C :   -0.416269
   7 O :    0.163790
   8 O :    0.299906
   9 H :    0.122202
  10 H :    0.120676
  11 H :    0.112197
  12 H :    0.152955
  13 H :    0.158553
  14 H :    0.173858
  15 H :    0.128455
  16 H :    0.135140
  17 H :    0.127455

  Mayer bond orders larger than 0.1
B(  0-C ,  1-N ) :   0.8508 B(  0-C ,  9-H ) :   0.9316 B(  0-C , 10-H ) :   0.9346
B(  0-C , 11-H ) :   0.9295 B(  1-N ,  2-C ) :   2.0136 B(  2-C ,  3-C ) :   0.9129
B(  2-C ,  8-O ) :   0.9433 B(  3-C ,  4-C ) :   0.9347 B(  3-C , 12-H ) :   0.9121
B(  3-C , 13-H ) :   0.9042 B(  4-C ,  5-C ) :   0.9175 B(  4-C ,  6-C ) :   0.9067
B(  4-C , 14-H ) :   0.8939 B(  5-C , 15-H ) :   0.9316 B(  5-C , 16-H ) :   0.9323
B(  5-C , 17-H ) :   0.9360 B(  6-C ,  7-O ) :   2.0645 B(  6-C ,  8-O ) :   1.0409

MP2 TOTAL ENERGY:     -438.417929412 Eh
FINAL SINGLE POINT ENERGY      -438.417929411789

DIPOLE MOMENT
-------------
                                X             Y             Z
Electronic contribution:      0.63655       3.42435       3.10527
Nuclear contribution   :     -0.89997      -4.23004      -3.54307
                        -----------------------------------------
Total Dipole Moment    :     -0.26342      -0.80569      -0.43780
                        -----------------------------------------
Magnitude (a.u.)       :      0.95404
Magnitude (Debye)      :      2.42497

                             ****ORCA TERMINATED NORMALLY****
TOTAL RUN TIME: 0 days 0 hours 16 minutes 4 seconds 987 msec
