                         Program Version 3.0.3 - RELEASE   -
|  1> ! RI-MP2 RIJK def2-TZVP def2-TZVP/C def2-TZVP/JK TIGHTSCF
|  2> % maxcore 2000
|  3> % mp2 density relaxed end
|  4> *xyz 0 1
|  5>  C       -0.2399536487     1.5341507746    -0.0505479099
|  6>  C       -0.0120846282     0.0271325150    -0.0167465897
|  7>  O       -1.2283353261    -0.6797224798    -0.1771071217
|  8>  C        1.1864660955    -0.4456841823    -0.9090388717
|  9>  C        2.0234263598    -0.5651021371     0.3704064995
| 10>  C        3.2613324715    -1.3712080332     0.6089955422
| 11>  C        3.3224401701     0.1414266763     0.6353858748
| 12>  C        0.7611337730    -0.4684119123     1.2360251221
| 13>  H        0.6923797293     2.0798394640     0.1239450705
| 14>  H       -0.6273843094     1.8467840686    -1.0289505379
| 15>  H       -0.9642905750     1.8266407012     0.7162335952
| 16>  H       -1.6732668218    -0.3358948474    -0.9595628038
| 17>  H        0.9648983753    -1.4172615192    -1.3608558237
| 18>  H        1.5390487730     0.2450694124    -1.6814151560
| 19>  H        3.3536109317    -1.9022683316     1.5513994871
| 20>  H        3.7094360065    -1.8851390103    -0.2358046811
| 21>  H        3.8119868641     0.6458830820    -0.1921690363
| 22>  H        3.4556014349     0.6294403155     1.5961486348
| 23>  H        0.7842218041     0.2025043012     2.0997131811
| 24>  H        0.3852642002    -1.4470292375     1.5478118743
| 25> *
| 26>
| 27>                          ****END OF INPUT****

CARTESIAN COORDINATES (ANGSTROEM)
---------------------------------
  C     -0.239954    1.534151   -0.050548
  C     -0.012085    0.027133   -0.016747
  O     -1.228335   -0.679722   -0.177107
  C      1.186466   -0.445684   -0.909039
  C      2.023426   -0.565102    0.370406
  C      3.261332   -1.371208    0.608996
  C      3.322440    0.141427    0.635386
  C      0.761134   -0.468412    1.236025
  H      0.692380    2.079839    0.123945
  H     -0.627384    1.846784   -1.028951
  H     -0.964291    1.826641    0.716234
  H     -1.673267   -0.335895   -0.959563
  H      0.964898   -1.417262   -1.360856
  H      1.539049    0.245069   -1.681415
  H      3.353611   -1.902268    1.551399
  H      3.709436   -1.885139   -0.235805
  H      3.811987    0.645883   -0.192169
  H      3.455601    0.629440    1.596149
  H      0.784222    0.202504    2.099713
  H      0.385264   -1.447029    1.547812

 Total Charge           Charge          ....    0
 Multiplicity           Mult            ....    1
 Number of Electrons    NEL             ....   62
 Basis Dimension        Dim             ....  320

ORBITAL ENERGIES
----------------

  NO   OCC          E(Eh)            E(eV)
   0   2.0000     -20.551210      -559.2269
   1   2.0000     -11.283159      -307.0304
   2   2.0000     -11.232599      -305.6546
   3   2.0000     -11.221011      -305.3392
   4   2.0000     -11.219339      -305.2937
   5   2.0000     -11.217742      -305.2503
   6   2.0000     -11.216789      -305.2243
   7   2.0000     -11.214892      -305.1727
   8   2.0000      -1.360615       -37.0242
   9   2.0000      -1.160896       -31.5896
  10   2.0000      -1.068465       -29.0744
  11   2.0000      -0.961697       -26.1691
  12   2.0000      -0.907079       -24.6829
  13   2.0000      -0.820905       -22.3380
  14   2.0000      -0.792212       -21.5572
  15   2.0000      -0.715895       -19.4805
  16   2.0000      -0.676943       -18.4206
  17   2.0000      -0.648742       -17.6532
  18   2.0000      -0.642980       -17.4964
  19   2.0000      -0.608768       -16.5654
  20   2.0000      -0.589236       -16.0339
  21   2.0000      -0.568344       -15.4654
  22   2.0000      -0.541232       -14.7277
  23   2.0000      -0.520989       -14.1768
  24   2.0000      -0.518773       -14.1165
  25   2.0000      -0.504359       -13.7243
  26   2.0000      -0.468628       -12.7520
  27   2.0000      -0.448548       -12.2056
  28   2.0000      -0.420470       -11.4416
  29   2.0000      -0.397583       -10.8188
  30   2.0000      -0.386686       -10.5223
  31   0.0000       0.129475         3.5232
  32   0.0000       0.153834         4.1860
  33   0.0000       0.165836         4.5126
  34   0.0000       0.179280         4.8785
  35   0.0000       0.185765         5.0549

MULLIKEN ATOMIC CHARGES
-----------------------
   0 C :   -0.484076
   1 C :    0.230196
   2 O :   -0.454617
   3 C :   -0.170030
   4 C :   -0.024056
   5 C :   -0.277835
   6 C :   -0.303164
   7 C :   -0.168373
   8 H :    0.141585
   9 H :    0.120614
  10 H :    0.142075
  11 H :    0.310349
  12 H :    0.101464
  13 H :    0.109592
  14 H :    0.126860
  15 H :    0.125375
  16 H :    0.122535
  17 H :    0.123660
  18 H :    0.115823
  19 H :    0.112026
Sum of atomic charges:    0.0000000

LOEWDIN ATOMIC CHARGES
----------------------
   0 C :   -0.282010
   1 C :   -0.373868
   2 O :    0.003047
   3 C :   -0.166431
   4 C :   -0.232264
   5 C :   -0.213085
   6 C :   -0.212826
   7 C :   -0.155206
   8 H :    0.132596
   9 H :    0.122053
  10 H :    0.127996
  11 H :    0.174582
  12 H :    0.139955
  13 H :    0.128888
  14 H :    0.133686
  15 H :    0.133325
  16 H :    0.131375
  17 H :    0.131697
  18 H :    0.131589
  19 H :    0.144902

  Mayer bond orders larger than 0.1
B(  0-C ,  1-C ) :   0.9131 B(  0-C ,  8-H ) :   0.9311 B(  0-C ,  9-H ) :   0.9264
B(  0-C , 10-H ) :   0.9424 B(  1-C ,  2-O ) :   1.0608 B(  1-C ,  3-C ) :   0.9341
B(  1-C ,  7-C ) :   0.9075 B(  2-O , 11-H ) :   0.8426 B(  3-C ,  4-C ) :   0.9237
B(  3-C , 12-H ) :   0.8920 B(  3-C , 13-H ) :   0.9088 B(  4-C ,  5-C ) :   0.8369
B(  4-C ,  6-C ) :   0.8467 B(  4-C ,  7-C ) :   0.9070 B(  5-C ,  6-C ) :   0.9461
B(  5-C , 14-H ) :   0.9245 B(  5-C , 15-H ) :   0.9254 B(  6-C , 16-H ) :   0.9223
B(  6-C , 17-H ) :   0.9228 B(  7-C , 18-H ) :   0.9158 B(  7-C , 19-H ) :   0.8958

MP2 TOTAL ENERGY:     -348.377856800 Eh
FINAL SINGLE POINT ENERGY      -348.377856799951

DIPOLE MOMENT
-------------
                                X             Y             Z
Electronic contribution:     -2.30324      -2.42934      -0.20424
Nuclear contribution   :      2.43496       2.87705      -0.15902
                        -----------------------------------------
Total Dipole Moment    :      0.13173       0.44771      -0.36326
                        -----------------------------------------
Magnitude (a.u.)       :      0.59140
Magnitude (Debye)      :      1.50323

                             ****ORCA TERMINATED NORMALLY****
TOTAL RUN TIME: 0 days 0 hours 13 minutes 22 seconds 462 msec
