                         Program Version 3.0.3 - RELEASE   -
|  1> ! RI-MP2 RIJK def2-TZVP def2-TZVP/C def2-TZVP/JK TIGHTSCF
|  2> % maxcore 2000
|  3> % mp2 density relaxed end
|  4> *xyz 0 1
|  5>  C       -0.0300270823     1.4819004489     0.0464279128
|  6>  C       -0.0510270012    -0.0078675589    -0.0312249241
|  7>  C        0.0004468975    -0.7728856940    -1.1346348671
|  8>  C       -0.0018681898    -2.2157651598    -0.7870853157
|  9>  O       -0.0453042209    -3.1620745977    -1.5384682264
| 10>  C        0.0154597969    -2.2681369256     0.7318670691
| 11>  N        1.2269580316    -1.6062553059     1.3143635438
| 12>  C       -0.0659054302    -0.8735958991     1.2144111418
| 13>  C       -0.8042205366    -0.4373720967     2.4526645374
| 14>  H        0.8490140203     1.8238092132     0.6073381310
| 15>  H       -0.0040243161     1.9366521324    -0.9462232660
| 16>  H       -0.9087073521     1.8647369208     0.5796604485
| 17>  H        0.0721206088    -0.4228962591    -2.1569265379
| 18>  H       -0.4272848510    -3.1116614525     1.2484842839
| 19>  H        1.3299337930    -1.9541025140     2.2697000474
| 20>  H       -0.3607192517     0.4659551535     2.8858818320
| 21>  H       -1.8547387118    -0.2211793418     2.2306589553
| 22>  H       -0.7787946545    -1.2225007438     3.2145925141
| 23> *
| 24>
| 25>                          ****END OF INPUT****

CARTESIAN COORDINATES (ANGSTROEM)
---------------------------------
  C     -0.030027    1.481900    0.046428
  C     -0.051027   -0.007868   -0.031225
  C      0.000447   -0.772886   -1.134635
  C     -0.001868   -2.215765   -0.787085
  O     -0.045304   -3.162075   -1.538468
  C      0.015460   -2.268137    0.731867
  N      1.226958   -1.606255    1.314364
  C     -0.065905   -0.873596    1.214411
  C     -0.804221   -0.437372    2.452665
  H      0.849014    1.823809    0.607338
  H     -0.004024    1.936652   -0.946223
  H     -0.908707    1.864737    0.579660
  H      0.072121   -0.422896   -2.156927
  H     -0.427285   -3.111661    1.248484
  H      1.329934   -1.954103    2.269700
  H     -0.360719    0.465955    2.885882
  H     -1.854739   -0.221179    2.230659
  H     -0.778795   -1.222501    3.214593

 Total Charge           Charge          ....    0
 Multiplicity           Mult            ....    1
 Number of Electrons    NEL             ....   66
 Basis Dimension        Dim             ....  333

ORBITAL ENERGIES
----------------

  NO   OCC          E(Eh)            E(eV)
   0   2.0000     -20.537869      -558.8638
   1   2.0000     -15.582198      -424.0132
   2   2.0000     -11.326611      -308.2127
   3   2.0000     -11.289052      -307.1907
   4   2.0000     -11.272775      -306.7478
   5   2.0000     -11.271224      -306.7056
   6   2.0000     -11.248123      -306.0770
   7   2.0000     -11.245107      -305.9949
   8   2.0000     -11.231207      -305.6167
   9   2.0000      -1.380011       -37.5520
  10   2.0000      -1.290475       -35.1156
  11   2.0000      -1.111682       -30.2504
  12   2.0000      -1.021282       -27.7905
  13   2.0000      -0.994158       -27.0524
  14   2.0000      -0.911076       -24.7916
  15   2.0000      -0.863045       -23.4846
  16   2.0000      -0.761721       -20.7275
  17   2.0000      -0.734902       -19.9977
  18   2.0000      -0.690631       -18.7930
  19   2.0000      -0.644279       -17.5317
  20   2.0000      -0.626365       -17.0443
  21   2.0000      -0.608697       -16.5635
  22   2.0000      -0.599401       -16.3105
  23   2.0000      -0.583527       -15.8786
  24   2.0000      -0.572721       -15.5845
  25   2.0000      -0.564004       -15.3473
  26   2.0000      -0.540851       -14.7173
  27   2.0000      -0.526056       -14.3147
  28   2.0000      -0.493615       -13.4320
  29   2.0000      -0.479737       -13.0543
  30   2.0000      -0.429332       -11.6827
  31   2.0000      -0.386364       -10.5135
  32   2.0000      -0.363487        -9.8910
  33   0.0000       0.092173         2.5082
  34   0.0000       0.116803         3.1784
  35   0.0000       0.143442         3.9033
  36   0.0000       0.168154         4.5757
  37   0.0000       0.177715         4.8359

MULLIKEN ATOMIC CHARGES
-----------------------
   0 C :   -0.450239
   1 C :    0.032196
   2 C :   -0.207447
   3 C :    0.196424
   4 O :   -0.279452
   5 C :   -0.144385
   6 N :   -0.384984
   7 C :    0.234007
   8 C :   -0.384604
   9 H :    0.157649
  10 H :    0.150731
  11 H :    0.149067
  12 H :    0.138545
  13 H :    0.148970
  14 H :    0.214922
  15 H :    0.147419
  16 H :    0.146509
  17 H :    0.134671
Sum of atomic charges:   -0.0000000

LOEWDIN ATOMIC CHARGES
----------------------
   0 C :   -0.260528
   1 C :   -0.108142
   2 C :   -0.086599
   3 C :   -0.300488
   4 O :    0.148997
   5 C :   -0.176610
   6 N :    0.040426
   7 C :   -0.262868
   8 C :   -0.266771
   9 H :    0.141463
  10 H :    0.134864
  11 H :    0.136227
  12 H :    0.146660
  13 H :    0.144417
  14 H :    0.169338
  15 H :    0.131876
  16 H :    0.135804
  17 H :    0.131933

  Mayer bond orders larger than 0.1
B(  0-C ,  1-C ) :   0.8674 B(  0-C ,  9-H ) :   0.9297 B(  0-C , 10-H ) :   0.9446
B(  0-C , 11-H ) :   0.9296 B(  1-C ,  2-C ) :   1.6491 B(  1-C ,  7-C ) :   0.9153
B(  2-C ,  3-C ) :   0.9984 B(  2-C , 12-H ) :   0.9221 B(  3-C ,  4-O ) :   1.9959
B(  3-C ,  5-C ) :   0.9278 B(  5-C ,  6-N ) :   0.9528 B(  5-C ,  7-C ) :   0.7966
B(  5-C , 13-H ) :   0.9224 B(  6-N ,  7-C ) :   0.8435 B(  6-N , 14-H ) :   0.8634
B(  7-C ,  8-C ) :   0.8888 B(  8-C , 15-H ) :   0.9397 B(  8-C , 16-H ) :   0.9280
B(  8-C , 17-H ) :   0.9253

MP2 TOTAL ENERGY:     -401.260857286 Eh
FINAL SINGLE POINT ENERGY      -401.260857285592

DIPOLE MOMENT
-------------
                                X             Y             Z
Electronic contribution:      1.64462      -7.27093      -5.68780
Nuclear contribution   :     -2.16174       8.44122       6.98437
                        -----------------------------------------
Total Dipole Moment    :     -0.51712       1.17029       1.29658
                        -----------------------------------------
Magnitude (a.u.)       :      1.82157
Magnitude (Debye)      :      4.63005

                             ****ORCA TERMINATED NORMALLY****
TOTAL RUN TIME: 0 days 0 hours 19 minutes 16 seconds 758 msec
