                         Program Version 3.0.3 - RELEASE   -
|  1> ! RI-MP2 RIJK def2-TZVP def2-TZVP/C def2-TZVP/JK TIGHTSCF
|  2> % maxcore 2000
|  3> % mp2 density relaxed end
|  4> *xyz 0 1
|  5>  C        0.0107034036     1.5192019132     0.0886325918
|  6>  O        1.4635187893     1.5167542912     0.0548873343
|  7>  C        1.5010404537     0.0849197659    -0.0234297814
|  8>  C        1.5683482535    -0.7005558674     1.3158111464
|  9>  N        0.7604117483     0.0462567282     2.3062589671
| 10>  C        0.0762926604    -0.8217320326     1.3274990020
| 11>  C       -0.0385354505    -0.0249797607     0.0048021339
| 12>  H       -0.3755923524     1.9668162605     1.0078776462
| 13>  H       -0.3990441719     2.0318338982    -0.7897499540
| 14>  H        2.1336911475    -0.2991613237    -0.8280099273
| 15>  H        2.3366473735    -1.3914495794     1.6421676380
| 16>  H        0.8182291656    -0.4698096507     3.1832437587
| 17>  H       -0.5558706456    -1.6387055825     1.6527012615
| 18>  H       -0.6069846050    -0.4936346503    -0.7959216572
| 19> *
| 20>
| 21>                          ****END OF INPUT****

CARTESIAN COORDINATES (ANGSTROEM)
---------------------------------
  C      0.010703    1.519202    0.088633
  O      1.463519    1.516754    0.054887
  C      1.501040    0.084920   -0.023430
  C      1.568348   -0.700556    1.315811
  N      0.760412    0.046257    2.306259
  C      0.076293   -0.821732    1.327499
  C     -0.038535   -0.024980    0.004802
  H     -0.375592    1.966816    1.007878
  H     -0.399044    2.031834   -0.789750
  H      2.133691   -0.299161   -0.828010
  H      2.336647   -1.391450    1.642168
  H      0.818229   -0.469810    3.183244
  H     -0.555871   -1.638706    1.652701
  H     -0.606985   -0.493635   -0.795922

 Total Charge           Charge          ....    0
 Multiplicity           Mult            ....    1
 Number of Electrons    NEL             ....   52
 Basis Dimension        Dim             ....  259

ORBITAL ENERGIES
----------------

  NO   OCC          E(Eh)            E(eV)
   0   2.0000     -20.539946      -558.9204
   1   2.0000     -15.566207      -423.5780
   2   2.0000     -11.284758      -307.0739
   3   2.0000     -11.270554      -306.6874
   4   2.0000     -11.270083      -306.6746
   5   2.0000     -11.264784      -306.5303
   6   2.0000     -11.236264      -305.7543
   7   2.0000      -1.376264       -37.4500
   8   2.0000      -1.274239       -34.6738
   9   2.0000      -1.040302       -28.3080
  10   2.0000      -0.952177       -25.9101
  11   2.0000      -0.849353       -23.1121
  12   2.0000      -0.830343       -22.5948
  13   2.0000      -0.739041       -20.1103
  14   2.0000      -0.716563       -19.4987
  15   2.0000      -0.650777       -17.7085
  16   2.0000      -0.643863       -17.5204
  17   2.0000      -0.611418       -16.6375
  18   2.0000      -0.554673       -15.0934
  19   2.0000      -0.532951       -14.5023
  20   2.0000      -0.527201       -14.3459
  21   2.0000      -0.481902       -13.1132
  22   2.0000      -0.453770       -12.3477
  23   2.0000      -0.424754       -11.5581
  24   2.0000      -0.402382       -10.9494
  25   2.0000      -0.363394        -9.8885
  26   0.0000       0.137187         3.7331
  27   0.0000       0.156578         4.2607
  28   0.0000       0.166913         4.5419
  29   0.0000       0.179653         4.8886
  30   0.0000       0.198552         5.4029

MULLIKEN ATOMIC CHARGES
-----------------------
   0 C :   -0.030062
   1 O :   -0.334394
   2 C :    0.130502
   3 C :   -0.120534
   4 N :   -0.365098
   5 C :   -0.102191
   6 C :   -0.106927
   7 H :    0.107256
   8 H :    0.099258
   9 H :    0.102379
  10 H :    0.140090
  11 H :    0.216581
  12 H :    0.138870
  13 H :    0.124270
Sum of atomic charges:   -0.0000000

LOEWDIN ATOMIC CHARGES
----------------------
   0 C :   -0.243850
   1 O :    0.138511
   2 C :   -0.232549
   3 C :   -0.212786
   4 N :    0.013057
   5 C :   -0.219528
   6 C :   -0.180908
   7 H :    0.122698
   8 H :    0.116326
   9 H :    0.130242
  10 H :    0.127024
  11 H :    0.174054
  12 H :    0.127785
  13 H :    0.139927

  Mayer bond orders larger than 0.1
B(  0-C ,  1-O ) :   0.9391 B(  0-C ,  6-C ) :   0.9699 B(  0-C ,  7-H ) :   0.8998
B(  0-C ,  8-H ) :   0.9147 B(  1-O ,  2-C ) :   0.9676 B(  2-C ,  3-C ) :   0.8829
B(  2-C ,  6-C ) :   0.9934 B(  2-C ,  9-H ) :   0.9346 B(  3-C ,  4-N ) :   0.9048
B(  3-C ,  5-C ) :   0.9067 B(  3-C , 10-H ) :   0.9115 B(  4-N ,  5-C ) :   0.9510
B(  4-N , 11-H ) :   0.8644 B(  5-C ,  6-C ) :   0.9276 B(  5-C , 12-H ) :   0.9130
B(  6-C , 13-H ) :   0.9275

MP2 TOTAL ENERGY:     -323.936283534 Eh
FINAL SINGLE POINT ENERGY      -323.936283534171

DIPOLE MOMENT
-------------
                                X             Y             Z
Electronic contribution:      1.45704       0.80249       0.08637
Nuclear contribution   :     -1.91028      -1.96942      -0.03592
                        -----------------------------------------
Total Dipole Moment    :     -0.45324      -1.16693       0.05045
                        -----------------------------------------
Magnitude (a.u.)       :      1.25288
Magnitude (Debye)      :      3.18456

                             ****ORCA TERMINATED NORMALLY****
TOTAL RUN TIME: 0 days 0 hours 8 minutes 36 seconds 513 msec
