                         Program Version 3.0.3 - RELEASE   -
|  1> ! RI-MP2 RIJK def2-TZVP def2-TZVP/C def2-TZVP/JK TIGHTSCF
|  2> % maxcore 2000
|  3> % mp2 density relaxed end
|  4> *xyz 0 1
|  5>  C       -0.0128838860     1.5516816382     0.1160578361
|  6>  C        1.5251654869     1.5703811616    -0.1117164100
|  7>  C        1.4345776795     0.0993548058    -0.6140953090
|  8>  C        2.4266762934    -0.9413452962    -0.1437061655
|  9>  N        2.8665776530    -0.8583130864     1.2651715568
| 10>  C        1.9696355450    -1.9458903562     0.8544790661
| 11>  C        0.5470917493    -1.8541839611     1.3740505234
| 12>  O        0.0353012655    -0.5379646245     1.3273261518
| 13>  C        0.0139305417     0.0116753562     0.0237786342
| 14>  H       -0.3889922491     1.9488213797     1.0607565808
| 15>  H       -0.5712810733     1.9994622330    -0.7104582322
| 16>  H        1.9220994978     2.3115930102    -0.8089358780
| 17>  H        2.0780302561     1.6199422927     0.8275708212
| 18>  H        1.3559390894     0.0570423237    -1.7049741770
| 19>  H        3.1693693060    -1.2618297498    -0.8708903361
| 20>  H        3.8192393636    -1.2025257073     1.3483599589
| 21>  H        2.3675747111    -2.9572535507     0.7931551109
| 22>  H       -0.0899797678    -2.5457332980     0.7940471742
| 23>  H        0.5028867812    -2.1565489081     2.4256642461
| 24>  H       -0.7646979033    -0.4825661428    -0.5776003428
| 25> *
| 26>
| 27>                          ****END OF INPUT****

CARTESIAN COORDINATES (ANGSTROEM)
---------------------------------
  C     -0.012884    1.551682    0.116058
  C      1.525165    1.570381   -0.111716
  C      1.434578    0.099355   -0.614095
  C      2.426676   -0.941345   -0.143706
  N      2.866578   -0.858313    1.265172
  C      1.969636   -1.945890    0.854479
  C      0.547092   -1.854184    1.374051
  O      0.035301   -0.537965    1.327326
  C      0.013931    0.011675    0.023779
  H     -0.388992    1.948821    1.060757
  H     -0.571281    1.999462   -0.710458
  H      1.922099    2.311593   -0.808936
  H      2.078030    1.619942    0.827571
  H      1.355939    0.057042   -1.704974
  H      3.169369   -1.261830   -0.870890
  H      3.819239   -1.202526    1.348360
  H      2.367575   -2.957254    0.793155
  H     -0.089980   -2.545733    0.794047
  H      0.502887   -2.156549    2.425664
  H     -0.764698   -0.482566   -0.577600

 Total Charge           Charge          ....    0
 Multiplicity           Mult            ....    1
 Number of Electrons    NEL             ....   68
 Basis Dimension        Dim             ....  345

ORBITAL ENERGIES
----------------

  NO   OCC          E(Eh)            E(eV)
   0   2.0000     -20.547877      -559.1361
   1   2.0000     -15.554171      -423.2505
   2   2.0000     -11.273669      -306.7721
   3   2.0000     -11.270125      -306.6757
   4   2.0000     -11.258969      -306.3721
   5   2.0000     -11.258070      -306.3477
   6   2.0000     -11.224764      -305.4414
   7   2.0000     -11.212134      -305.0977
   8   2.0000     -11.210711      -305.0589
   9   2.0000      -1.374462       -37.4010
  10   2.0000      -1.259116       -34.2623
  11   2.0000      -1.115726       -30.3604
  12   2.0000      -0.976154       -26.5625
  13   2.0000      -0.940007       -25.5789
  14   2.0000      -0.885850       -24.1052
  15   2.0000      -0.829821       -22.5806
  16   2.0000      -0.792642       -21.5689
  17   2.0000      -0.725496       -19.7417
  18   2.0000      -0.712220       -19.3805
  19   2.0000      -0.669835       -18.2271
  20   2.0000      -0.645814       -17.5735
  21   2.0000      -0.622040       -16.9266
  22   2.0000      -0.597565       -16.2606
  23   2.0000      -0.576305       -15.6821
  24   2.0000      -0.546112       -14.8605
  25   2.0000      -0.516380       -14.0514
  26   2.0000      -0.503768       -13.7082
  27   2.0000      -0.485070       -13.1994
  28   2.0000      -0.471461       -12.8291
  29   2.0000      -0.458934       -12.4882
  30   2.0000      -0.447121       -12.1668
  31   2.0000      -0.421327       -11.4649
  32   2.0000      -0.395818       -10.7708
  33   2.0000      -0.372543       -10.1374
  34   0.0000       0.131893         3.5890
  35   0.0000       0.152982         4.1629
  36   0.0000       0.162071         4.4102
  37   0.0000       0.173362         4.7174
  38   0.0000       0.186104         5.0642

MULLIKEN ATOMIC CHARGES
-----------------------
   0 C :   -0.169065
   1 C :   -0.311747
   2 C :    0.078446
   3 C :   -0.125827
   4 N :   -0.399647
   5 C :   -0.055305
   6 C :   -0.027002
   7 O :   -0.294409
   8 C :   -0.023645
   9 H :    0.114814
  10 H :    0.112104
  11 H :    0.110402
  12 H :    0.139092
  13 H :    0.096377
  14 H :    0.124635
  15 H :    0.215592
  16 H :    0.124069
  17 H :    0.085985
  18 H :    0.121903
  19 H :    0.083229
Sum of atomic charges:    0.0000000

LOEWDIN ATOMIC CHARGES
----------------------
   0 C :   -0.218268
   1 C :   -0.213857
   2 C :   -0.198027
   3 C :   -0.235366
   4 N :    0.009071
   5 C :   -0.265595
   6 C :   -0.299990
   7 O :    0.192608
   8 C :   -0.272081
   9 H :    0.131961
  10 H :    0.133486
  11 H :    0.120767
  12 H :    0.142243
  13 H :    0.154126
  14 H :    0.136360
  15 H :    0.166093
  16 H :    0.137302
  17 H :    0.123445
  18 H :    0.134505
  19 H :    0.121217

  Mayer bond orders larger than 0.1
B(  0-C ,  1-C ) :   0.9568 B(  0-C ,  8-C ) :   0.9143 B(  0-C ,  9-H ) :   0.9144
B(  0-C , 10-H ) :   0.9176 B(  1-C ,  2-C ) :   0.8936 B(  1-C , 11-H ) :   0.9311
B(  1-C , 12-H ) :   0.9063 B(  2-C ,  3-C ) :   0.9009 B(  2-C ,  8-C ) :   0.9190
B(  2-C , 13-H ) :   0.9125 B(  3-C ,  4-N ) :   0.8702 B(  3-C ,  5-C ) :   0.9189
B(  3-C , 14-H ) :   0.9303 B(  4-N ,  5-C ) :   0.9082 B(  4-N , 15-H ) :   0.8643
B(  5-C ,  6-C ) :   0.9419 B(  5-C , 16-H ) :   0.9138 B(  6-C ,  7-O ) :   0.9549
B(  6-C , 17-H ) :   0.9435 B(  6-C , 18-H ) :   0.9172 B(  7-O ,  8-C ) :   1.0098
B(  8-C , 19-H ) :   0.9522

MP2 TOTAL ENERGY:     -402.424020258 Eh
FINAL SINGLE POINT ENERGY      -402.424020257982

DIPOLE MOMENT
-------------
                                X             Y             Z
Electronic contribution:      0.15859      -1.57104       1.75537
Nuclear contribution   :      0.26597       0.90581      -2.47596
                        -----------------------------------------
Total Dipole Moment    :      0.42456      -0.66523      -0.72058
                        -----------------------------------------
Magnitude (a.u.)       :      1.06865
Magnitude (Debye)      :      2.71630

                             ****ORCA TERMINATED NORMALLY****
TOTAL RUN TIME: 0 days 0 hours 20 minutes 42 seconds 413 msec
