                         Program Version 3.0.3 - RELEASE   -
|  1> ! RI-MP2 RIJK def2-TZVP def2-TZVP/C def2-TZVP/JK TIGHTSCF
|  2> % maxcore 2000
|  3> % mp2 density relaxed end
|  4> *xyz 0 1
|  5>  N       -0.0648027412     1.3990137356    -0.1133976940
|  6>  C       -0.0375700553     0.0272407683    -0.0473392769
|  7>  N       -1.1709724295    -0.6510471930     0.0296698949
|  8>  C       -1.0869798301    -1.9944613024     0.0305752397
|  9>  C        0.1211093423    -2.6556077540    -0.0330650740
| 10>  N        1.2843757922    -1.9714399136    -0.0956994504
| 11>  C        1.2034923836    -0.6673218414    -0.1041943951
| 12>  O        2.3334978986     0.0800307044    -0.1573579526
| 13>  H        0.7793802167     1.8804276954     0.1514551205
| 14>  H       -0.9300945352     1.8226794883     0.1844290730
| 15>  H       -2.0241151735    -2.5394882312     0.0895263334
| 16>  H        0.1856128831    -3.7381969689    -0.0297031091
| 17>  H        3.0723579985    -0.5441137675    -0.1759203295
| 18> *
| 19>
| 20>                          ****END OF INPUT****

CARTESIAN COORDINATES (ANGSTROEM)
---------------------------------
  N     -0.064803    1.399014   -0.113398
  C     -0.037570    0.027241   -0.047339
  N     -1.170972   -0.651047    0.029670
  C     -1.086980   -1.994461    0.030575
  C      0.121109   -2.655608   -0.033065
  N      1.284376   -1.971440   -0.095699
  C      1.203492   -0.667322   -0.104194
  O      2.333498    0.080031   -0.157358
  H      0.779380    1.880428    0.151455
  H     -0.930095    1.822679    0.184429
  H     -2.024115   -2.539488    0.089526
  H      0.185613   -3.738197   -0.029703
  H      3.072358   -0.544114   -0.175920

 Total Charge           Charge          ....    0
 Multiplicity           Mult            ....    1
 Number of Electrons    NEL             ....   58
 Basis Dimension        Dim             ....  278

ORBITAL ENERGIES
----------------

  NO   OCC          E(Eh)            E(eV)
   0   2.0000     -20.605536      -560.7051
   1   2.0000     -15.583956      -424.0610
   2   2.0000     -15.574856      -423.8134
   3   2.0000     -15.573419      -423.7743
   4   2.0000     -11.342697      -308.6505
   5   2.0000     -11.325263      -308.1761
   6   2.0000     -11.267367      -306.6007
   7   2.0000     -11.264223      -306.5151
   8   2.0000      -1.436335       -39.0846
   9   2.0000      -1.306435       -35.5499
  10   2.0000      -1.240824       -33.7645
  11   2.0000      -1.182537       -32.1785
  12   2.0000      -1.019840       -27.7513
  13   2.0000      -0.912195       -24.8221
  14   2.0000      -0.871872       -23.7248
  15   2.0000      -0.758344       -20.6356
  16   2.0000      -0.740988       -20.1633
  17   2.0000      -0.713805       -19.4236
  18   2.0000      -0.663293       -18.0491
  19   2.0000      -0.636843       -17.3294
  20   2.0000      -0.632127       -17.2011
  21   2.0000      -0.616546       -16.7771
  22   2.0000      -0.562249       -15.2996
  23   2.0000      -0.549766       -14.9599
  24   2.0000      -0.491186       -13.3658
  25   2.0000      -0.488762       -13.2999
  26   2.0000      -0.418569       -11.3898
  27   2.0000      -0.412325       -11.2199
  28   2.0000      -0.304844        -8.2952
  29   0.0000       0.098958         2.6928
  30   0.0000       0.139484         3.7956
  31   0.0000       0.143807         3.9132
  32   0.0000       0.157854         4.2954
  33   0.0000       0.176249         4.7960

MULLIKEN ATOMIC CHARGES
-----------------------
   0 N :   -0.488181
   1 C :    0.218739
   2 N :   -0.279224
   3 C :   -0.059162
   4 C :   -0.045191
   5 N :   -0.283923
   6 C :    0.246195
   7 O :   -0.442273
   8 H :    0.268708
   9 H :    0.258751
  10 H :    0.131840
  11 H :    0.132832
  12 H :    0.340889
Sum of atomic charges:   -0.0000000

LOEWDIN ATOMIC CHARGES
----------------------
   0 N :   -0.031978
   1 C :   -0.317843
   2 N :    0.144839
   3 C :   -0.239478
   4 C :   -0.237651
   5 N :    0.134728
   6 C :   -0.353664
   7 O :    0.072847
   8 H :    0.174965
   9 H :    0.174062
  10 H :    0.140449
  11 H :    0.139456
  12 H :    0.199268

  Mayer bond orders larger than 0.1
B(  0-N ,  1-C ) :   1.1122 B(  0-N ,  8-H ) :   0.8621 B(  0-N ,  9-H ) :   0.8612
B(  1-C ,  2-N ) :   1.4457 B(  1-C ,  6-C ) :   1.2076 B(  2-N ,  3-C ) :   1.3307
B(  3-C ,  4-C ) :   1.4018 B(  3-C , 10-H ) :   0.9330 B(  4-C ,  5-N ) :   1.2879
B(  4-C , 11-H ) :   0.9304 B(  5-N ,  6-C ) :   1.4714 B(  6-C ,  7-O ) :   1.0995
B(  7-O , 12-H ) :   0.8103

MP2 TOTAL ENERGY:     -394.195207866 Eh
FINAL SINGLE POINT ENERGY      -394.195207865998

DIPOLE MOMENT
-------------
                                X             Y             Z
Electronic contribution:      1.02406      -0.32851      -0.17584
Nuclear contribution   :     -0.71328       0.57673       0.48592
                        -----------------------------------------
Total Dipole Moment    :      0.31078       0.24822       0.31008
                        -----------------------------------------
Magnitude (a.u.)       :      0.50433
Magnitude (Debye)      :      1.28191

                             ****ORCA TERMINATED NORMALLY****
TOTAL RUN TIME: 0 days 0 hours 9 minutes 56 seconds 656 msec
