                         Program Version 3.0.3 - RELEASE   -
|  1> ! RI-MP2 RIJK def2-TZVP def2-TZVP/C def2-TZVP/JK TIGHTSCF
|  2> % maxcore 2000
|  3> % mp2 density relaxed end
|  4> *xyz 0 1
|  5>  C       -0.3489368265     0.8230415305     1.2392014960
|  6>  N        0.0268741433     0.3553569449    -0.0935569562
|  7>  C        1.1431625322    -0.5716909454    -0.1086935746
|  8>  C        0.8883874780    -1.9517180442     0.4465587729
|  9>  N       -0.3174219556    -2.3893964305     0.6924306550
| 10>  O       -0.0870953573    -3.7168497452     1.1543524592
| 11>  C        1.2378047190    -3.8846064834     1.1177832790
| 12>  N        1.7350239471    -5.0653301356     1.5634127572
| 13>  N        1.9049223512    -2.8470102983     0.6910724496
| 14>  H        0.4856201973     1.3890343955     1.6688995490
| 15>  H       -1.1987788516     1.5059290540     1.1498542691
| 16>  H       -0.6214235333     0.0222521711     1.9427604521
| 17>  H       -0.7752644729    -0.0805535696    -0.5359727798
| 18>  H        1.5010781519    -0.6949102731    -1.1396506912
| 19>  H        1.9816096270    -0.1364212479     0.4475426142
| 20>  H        1.1059343591    -5.8518904437     1.5739645631
| 21>  H        2.6863487808    -5.2613149592     1.2974039356
| 22> *
| 23>
| 24>                          ****END OF INPUT****

CARTESIAN COORDINATES (ANGSTROEM)
---------------------------------
  C     -0.348937    0.823042    1.239201
  N      0.026874    0.355357   -0.093557
  C      1.143163   -0.571691   -0.108694
  C      0.888387   -1.951718    0.446559
  N     -0.317422   -2.389396    0.692431
  O     -0.087095   -3.716850    1.154352
  C      1.237805   -3.884606    1.117783
  N      1.735024   -5.065330    1.563413
  N      1.904922   -2.847010    0.691072
  H      0.485620    1.389034    1.668900
  H     -1.198779    1.505929    1.149854
  H     -0.621424    0.022252    1.942760
  H     -0.775264   -0.080554   -0.535973
  H      1.501078   -0.694910   -1.139651
  H      1.981610   -0.136421    0.447543
  H      1.105934   -5.851890    1.573965
  H      2.686349   -5.261315    1.297404

 Total Charge           Charge          ....    0
 Multiplicity           Mult            ....    1
 Number of Electrons    NEL             ....   68
 Basis Dimension        Dim             ....  327

ORBITAL ENERGIES
----------------

  NO   OCC          E(Eh)            E(eV)
   0   2.0000     -20.645356      -561.7887
   1   2.0000     -15.610482      -424.7828
   2   2.0000     -15.609122      -424.7458
   3   2.0000     -15.557161      -423.3319
   4   2.0000     -15.544120      -422.9770
   5   2.0000     -11.395247      -310.0804
   6   2.0000     -11.310850      -307.7839
   7   2.0000     -11.267565      -306.6060
   8   2.0000     -11.236950      -305.7730
   9   2.0000      -1.511022       -41.1170
  10   2.0000      -1.272970       -34.6393
  11   2.0000      -1.250409       -34.0254
  12   2.0000      -1.203708       -32.7546
  13   2.0000      -1.123947       -30.5842
  14   2.0000      -0.976661       -26.5763
  15   2.0000      -0.882774       -24.0215
  16   2.0000      -0.848349       -23.0847
  17   2.0000      -0.811751       -22.0889
  18   2.0000      -0.737014       -20.0552
  19   2.0000      -0.710453       -19.3324
  20   2.0000      -0.691076       -18.8051
  21   2.0000      -0.657549       -17.8928
  22   2.0000      -0.645727       -17.5711
  23   2.0000      -0.598444       -16.2845
  24   2.0000      -0.590126       -16.0581
  25   2.0000      -0.551239       -15.0000
  26   2.0000      -0.527581       -14.3562
  27   2.0000      -0.523097       -14.2342
  28   2.0000      -0.517909       -14.0930
  29   2.0000      -0.508278       -13.8309
  30   2.0000      -0.460208       -12.5229
  31   2.0000      -0.452614       -12.3162
  32   2.0000      -0.378657       -10.3038
  33   2.0000      -0.368362       -10.0236
  34   0.0000       0.120024         3.2660
  35   0.0000       0.146326         3.9817
  36   0.0000       0.152940         4.1617
  37   0.0000       0.177131         4.8200
  38   0.0000       0.182961         4.9786

MULLIKEN ATOMIC CHARGES
-----------------------
   0 C :   -0.306262
   1 N :   -0.333792
   2 C :   -0.140387
   3 C :    0.135622
   4 N :   -0.175438
   5 O :   -0.137879
   6 C :    0.368509
   7 N :   -0.502627
   8 N :   -0.351057
   9 H :    0.123117
  10 H :    0.132935
  11 H :    0.130274
  12 H :    0.211800
  13 H :    0.143701
  14 H :    0.143041
  15 H :    0.276347
  16 H :    0.282096
Sum of atomic charges:   -0.0000000

LOEWDIN ATOMIC CHARGES
----------------------
   0 C :   -0.351135
   1 N :   -0.043561
   2 C :   -0.281516
   3 C :   -0.370846
   4 N :    0.034740
   5 O :    0.257422
   6 C :   -0.485658
   7 N :   -0.022907
   8 N :    0.093831
   9 H :    0.113948
  10 H :    0.115534
  11 H :    0.102353
  12 H :    0.170895
  13 H :    0.148398
  14 H :    0.149434
  15 H :    0.182055
  16 H :    0.187015

  Mayer bond orders larger than 0.1
B(  0-C ,  1-N ) :   0.9365 B(  0-C ,  9-H ) :   0.9359 B(  0-C , 10-H ) :   0.9407
B(  0-C , 11-H ) :   0.9276 B(  1-N ,  2-C ) :   1.0081 B(  1-N , 12-H ) :   0.8828
B(  2-C ,  3-C ) :   0.8430 B(  2-C , 13-H ) :   0.9269 B(  2-C , 14-H ) :   0.9587
B(  3-C ,  4-N ) :   1.6351 B(  3-C ,  8-N ) :   1.2320 B(  4-N ,  5-O ) :   0.8236
B(  5-O ,  6-C ) :   1.1794 B(  6-C ,  7-N ) :   1.1404 B(  6-C ,  8-N ) :   1.5663
B(  7-N , 15-H ) :   0.8619 B(  7-N , 16-H ) :   0.8618

MP2 TOTAL ENERGY:     -450.585494308 Eh
FINAL SINGLE POINT ENERGY      -450.585494307670

DIPOLE MOMENT
-------------
                                X             Y             Z
Electronic contribution:      0.60363      -8.71110      -0.20206
Nuclear contribution   :     -0.18767       7.53515       0.31678
                        -----------------------------------------
Total Dipole Moment    :      0.41596      -1.17595       0.11472
                        -----------------------------------------
Magnitude (a.u.)       :      1.25261
Magnitude (Debye)      :      3.18389

                             ****ORCA TERMINATED NORMALLY****
TOTAL RUN TIME: 0 days 0 hours 15 minutes 25 seconds 930 msec
