                         Program Version 3.0.3 - RELEASE   -
|  1> ! RI-MP2 RIJK def2-TZVP def2-TZVP/C def2-TZVP/JK TIGHTSCF
|  2> % maxcore 2000
|  3> % mp2 density relaxed end
|  4> *xyz 0 1
|  5>  N        0.0767087857     1.4400813556     0.0660580732
|  6>  C       -0.0208813058     0.0528998165    -0.0405096975
|  7>  C       -1.1808679649    -0.6328102048    -0.1311287910
|  8>  O       -1.1868155375    -1.9894512236    -0.3243579878
|  9>  C       -0.0389160737    -2.7159981802    -0.4219014743
| 10>  O       -0.0654885734    -3.9036828627    -0.5937274288
| 11>  C        1.1837113191    -1.8802898128    -0.2878137763
| 12>  O        2.3221833861    -2.5729704918    -0.3599623598
| 13>  N        1.1918343586    -0.6064776973    -0.1140528254
| 14>  H        0.9262059677     1.7234579425     0.5351643311
| 15>  H       -0.7358141103     1.8914270177     0.4616064706
| 16>  H       -2.1776441768    -0.2202905086    -0.0795321774
| 17>  H        3.0442762652    -1.9339284105    -0.2677949666
| 18> *
| 19>
| 20>                          ****END OF INPUT****

CARTESIAN COORDINATES (ANGSTROEM)
---------------------------------
  N      0.076709    1.440081    0.066058
  C     -0.020881    0.052900   -0.040510
  C     -1.180868   -0.632810   -0.131129
  O     -1.186816   -1.989451   -0.324358
  C     -0.038916   -2.715998   -0.421901
  O     -0.065489   -3.903683   -0.593727
  C      1.183711   -1.880290   -0.287814
  O      2.322183   -2.572970   -0.359962
  N      1.191834   -0.606478   -0.114053
  H      0.926206    1.723458    0.535164
  H     -0.735814    1.891427    0.461606
  H     -2.177644   -0.220291   -0.079532
  H      3.044276   -1.933928   -0.267795

 Total Charge           Charge          ....    0
 Multiplicity           Mult            ....    1
 Number of Electrons    NEL             ....   66
 Basis Dimension        Dim             ....  303

ORBITAL ENERGIES
----------------

  NO   OCC          E(Eh)            E(eV)
   0   2.0000     -20.639308      -561.6241
   1   2.0000     -20.629462      -561.3562
   2   2.0000     -20.561747      -559.5136
   3   2.0000     -15.603040      -424.5803
   4   2.0000     -15.581474      -423.9935
   5   2.0000     -11.410051      -310.4833
   6   2.0000     -11.389756      -309.9310
   7   2.0000     -11.326448      -308.2083
   8   2.0000     -11.297980      -307.4337
   9   2.0000      -1.496076       -40.7103
  10   2.0000      -1.460464       -39.7413
  11   2.0000      -1.391753       -37.8715
  12   2.0000      -1.297513       -35.3071
  13   2.0000      -1.208224       -32.8775
  14   2.0000      -1.033726       -28.1291
  15   2.0000      -0.955906       -26.0115
  16   2.0000      -0.900476       -24.5032
  17   2.0000      -0.812106       -22.0985
  18   2.0000      -0.770446       -20.9649
  19   2.0000      -0.708951       -19.2915
  20   2.0000      -0.690315       -18.7844
  21   2.0000      -0.679410       -18.4877
  22   2.0000      -0.673951       -18.3391
  23   2.0000      -0.650027       -17.6881
  24   2.0000      -0.623777       -16.9738
  25   2.0000      -0.606878       -16.5140
  26   2.0000      -0.585783       -15.9400
  27   2.0000      -0.558322       -15.1927
  28   2.0000      -0.521018       -14.1776
  29   2.0000      -0.509987       -13.8774
  30   2.0000      -0.450886       -12.2692
  31   2.0000      -0.447124       -12.1669
  32   2.0000      -0.314222        -8.5504
  33   0.0000       0.061594         1.6761
  34   0.0000       0.124884         3.3983
  35   0.0000       0.138080         3.7574
  36   0.0000       0.164466         4.4754
  37   0.0000       0.168680         4.5900

MULLIKEN ATOMIC CHARGES
-----------------------
   0 N :   -0.508868
   1 C :    0.236016
   2 C :   -0.088019
   3 O :   -0.162452
   4 C :    0.258854
   5 O :   -0.271953
   6 C :    0.177257
   7 O :   -0.361630
   8 N :   -0.273477
   9 H :    0.259309
  10 H :    0.246980
  11 H :    0.148532
  12 H :    0.339452
Sum of atomic charges:    0.0000000

LOEWDIN ATOMIC CHARGES
----------------------
   0 N :   -0.072896
   1 C :   -0.363138
   2 C :   -0.240226
   3 O :    0.347190
   4 C :   -0.447640
   5 O :    0.152859
   6 C :   -0.354582
   7 O :    0.132991
   8 N :    0.158819
   9 H :    0.172462
  10 H :    0.169239
  11 H :    0.140384
  12 H :    0.204537

  Mayer bond orders larger than 0.1
B(  0-N ,  1-C ) :   1.0392 B(  0-N ,  9-H ) :   0.8651 B(  0-N , 10-H ) :   0.8802
B(  1-C ,  2-C ) :   1.5642 B(  1-C ,  8-N ) :   1.1118 B(  2-C ,  3-O ) :   0.9790
B(  2-C , 11-H ) :   0.9395 B(  3-O ,  4-C ) :   1.0965 B(  4-C ,  5-O ) :   1.9926
B(  4-C ,  6-C ) :   0.9810 B(  6-C ,  7-O ) :   1.1835 B(  6-C ,  8-N ) :   1.6125
B(  7-O , 12-H ) :   0.8072

MP2 TOTAL ENERGY:     -489.158139870 Eh
FINAL SINGLE POINT ENERGY      -489.158139870364

DIPOLE MOMENT
-------------
                                X             Y             Z
Electronic contribution:      0.23484      -4.88833      -0.81918
Nuclear contribution   :     -0.03402       6.73418       1.51329
                        -----------------------------------------
Total Dipole Moment    :      0.20083       1.84585       0.69411
                        -----------------------------------------
Magnitude (a.u.)       :      1.98224
Magnitude (Debye)      :      5.03846

                             ****ORCA TERMINATED NORMALLY****
TOTAL RUN TIME: 0 days 0 hours 13 minutes 13 seconds 485 msec
