                         Program Version 3.0.3 - RELEASE   -
|  1> ! RI-MP2 RIJK def2-TZVP def2-TZVP/C def2-TZVP/JK TIGHTSCF
|  2> % maxcore 2000
|  3> % mp2 density relaxed end
|  4> *xyz 0 1
|  5>  O        0.0207809053    -0.0070888905    -0.1723874970
|  6>  C       -0.0141701828     1.1743412254    -0.0539841262
|  7>  C       -1.1637881563     2.2209828716     0.2698613245
|  8>  C       -0.0404405116     3.1148818516     0.8484383067
|  9>  C        0.7613401253     2.8706106314     2.1248288522
| 10>  N        1.9175684101     3.0835360769     1.1424301161
| 11>  C        1.0562255760     4.1531097771     0.3844953776
| 12>  C        1.2685823243     3.4740358697    -0.9661731229
| 13>  C        1.0235757677     2.3478646425     0.0497002685
| 14>  H       -1.6139547419     2.6029846865    -0.6514711454
| 15>  H       -1.9580728389     1.8715591761     0.9339813641
| 16>  H        0.7187259717     3.6280629928     2.9138099572
| 17>  H        0.7534563130     1.8649043181     2.5602729178
| 18>  H        1.1580458452     5.2030780434     0.6719764043
| 19>  H        0.4992529494     3.6321244710    -1.7252170430
| 20>  H        2.2741233134     3.5267577862    -1.3894464945
| 21> *
| 22>
| 23>                          ****END OF INPUT****

CARTESIAN COORDINATES (ANGSTROEM)
---------------------------------
  O      0.020781   -0.007089   -0.172387
  C     -0.014170    1.174341   -0.053984
  C     -1.163788    2.220983    0.269861
  C     -0.040441    3.114882    0.848438
  C      0.761340    2.870611    2.124829
  N      1.917568    3.083536    1.142430
  C      1.056226    4.153110    0.384495
  C      1.268582    3.474036   -0.966173
  C      1.023576    2.347865    0.049700
  H     -1.613955    2.602985   -0.651471
  H     -1.958073    1.871559    0.933981
  H      0.718726    3.628063    2.913810
  H      0.753456    1.864904    2.560273
  H      1.158046    5.203078    0.671976
  H      0.499253    3.632124   -1.725217
  H      2.274123    3.526758   -1.389446

 Total Charge           Charge          ....    0
 Multiplicity           Mult            ....    1
 Number of Electrons    NEL             ....   64
 Basis Dimension        Dim             ....  321

ORBITAL ENERGIES
----------------

  NO   OCC          E(Eh)            E(eV)
   0   2.0000     -20.575567      -559.8896
   1   2.0000     -15.594894      -424.3586
   2   2.0000     -11.361437      -309.1604
   3   2.0000     -11.304974      -307.6240
   4   2.0000     -11.287393      -307.1456
   5   2.0000     -11.269466      -306.6578
   6   2.0000     -11.269289      -306.6529
   7   2.0000     -11.256810      -306.3134
   8   2.0000     -11.254488      -306.2502
   9   2.0000      -1.419917       -38.6379
  10   2.0000      -1.333362       -36.2826
  11   2.0000      -1.096218       -29.8296
  12   2.0000      -1.047769       -28.5112
  13   2.0000      -0.906239       -24.6600
  14   2.0000      -0.889857       -24.2142
  15   2.0000      -0.857134       -23.3238
  16   2.0000      -0.779932       -21.2230
  17   2.0000      -0.687567       -18.7097
  18   2.0000      -0.682073       -18.5602
  19   2.0000      -0.660706       -17.9787
  20   2.0000      -0.646116       -17.5817
  21   2.0000      -0.619202       -16.8493
  22   2.0000      -0.602062       -16.3829
  23   2.0000      -0.584627       -15.9085
  24   2.0000      -0.544261       -14.8101
  25   2.0000      -0.528451       -14.3799
  26   2.0000      -0.493567       -13.4306
  27   2.0000      -0.476971       -12.9790
  28   2.0000      -0.446556       -12.1514
  29   2.0000      -0.437980       -11.9180
  30   2.0000      -0.402815       -10.9612
  31   2.0000      -0.356631        -9.7044
  32   0.0000       0.105814         2.8794
  33   0.0000       0.132430         3.6036
  34   0.0000       0.148986         4.0541
  35   0.0000       0.164684         4.4813
  36   0.0000       0.169321         4.6075

MULLIKEN ATOMIC CHARGES
-----------------------
   0 O :   -0.193345
   1 C :    0.091817
   2 C :   -0.249233
   3 C :   -0.013722
   4 C :   -0.161073
   5 N :   -0.189186
   6 C :   -0.074588
   7 C :   -0.208256
   8 C :    0.065546
   9 H :    0.150002
  10 H :    0.150275
  11 H :    0.121137
  12 H :    0.120813
  13 H :    0.134016
  14 H :    0.123537
  15 H :    0.132259
Sum of atomic charges:    0.0000000

LOEWDIN ATOMIC CHARGES
----------------------
   0 O :    0.197343
   1 C :   -0.258857
   2 C :   -0.176197
   3 C :   -0.168430
   4 C :   -0.213210
   5 N :    0.142935
   6 C :   -0.151830
   7 C :   -0.177672
   8 C :   -0.144947
   9 H :    0.152149
  10 H :    0.141431
  11 H :    0.124785
  12 H :    0.128960
  13 H :    0.127580
  14 H :    0.136873
  15 H :    0.139090

  Mayer bond orders larger than 0.1
B(  0-O ,  1-C ) :   2.0700 B(  1-C ,  2-C ) :   0.8804 B(  1-C ,  8-C ) :   0.7474
B(  2-C ,  3-C ) :   0.9082 B(  2-C ,  8-C ) :  -0.1193 B(  2-C ,  9-H ) :   0.8986
B(  2-C , 10-H ) :   0.8948 B(  3-C ,  4-C ) :   0.9835 B(  3-C ,  6-C ) :   0.8987
B(  3-C ,  8-C ) :   0.8179 B(  4-C ,  5-N ) :   0.9163 B(  4-C , 11-H ) :   0.9258
B(  4-C , 12-H ) :   0.9038 B(  5-N ,  6-C ) :   0.8951 B(  5-N ,  8-C ) :   0.9039
B(  6-C ,  7-C ) :   0.9428 B(  6-C , 13-H ) :   0.8820 B(  7-C ,  8-C ) :   0.9301
B(  7-C , 14-H ) :   0.9079 B(  7-C , 15-H ) :   0.9052

MP2 TOTAL ENERGY:     -399.892690167 Eh
FINAL SINGLE POINT ENERGY      -399.892690166834

DIPOLE MOMENT
-------------
                                X             Y             Z
Electronic contribution:      0.94719      -3.76334      -0.57550
Nuclear contribution   :     -1.73837       4.75691       0.47536
                        -----------------------------------------
Total Dipole Moment    :     -0.79118       0.99357      -0.10014
                        -----------------------------------------
Magnitude (a.u.)       :      1.27404
Magnitude (Debye)      :      3.23835

                             ****ORCA TERMINATED NORMALLY****
TOTAL RUN TIME: 0 days 0 hours 21 minutes 5 seconds 794 msec
