                         Program Version 3.0.3 - RELEASE   -
|  1> ! RI-MP2 RIJK def2-TZVP def2-TZVP/C def2-TZVP/JK TIGHTSCF
|  2> % maxcore 2000
|  3> % mp2 density relaxed end
|  4> *xyz 0 1
|  5>  O        0.1054679347     1.4282400459    -0.1463297007
|  6>  C        0.0206430040     0.0401976668    -0.0008670054
|  7>  C        0.2926240068    -0.5954665593     1.4106842950
|  8>  C       -1.1103170905    -1.2599754048     1.3835884539
|  9>  C       -2.2961216109    -0.4385617171     1.9460945055
| 10>  N       -2.0195602741     1.0038374236     1.7019731002
| 11>  C       -2.5780144147     0.1630675815     0.6135794077
| 12>  C       -1.3972767085    -0.6356124081    -0.0135819104
| 13>  O       -1.7409243374    -1.4772417080    -1.0725760945
| 14>  H       -0.4466378951     1.7848482417     0.5665564243
| 15>  H        0.6478195269    -0.4066702089    -0.7789684857
| 16>  H        1.1189740392    -1.3096251741     1.4209572216
| 17>  H        0.4433975468     0.1419938942     2.2005533880
| 18>  H       -1.1941840099    -2.3368070025     1.5200936658
| 19>  H       -2.9719772029    -0.7203505789     2.7442943061
| 20>  H       -2.7877175771     1.5357999563     2.1077706286
| 21>  H       -3.5150345281     0.4183096327     0.1323193228
| 22>  H       -1.7922990493    -0.9409263710    -1.8728054827
| 23> *
| 24>
| 25>                          ****END OF INPUT****

CARTESIAN COORDINATES (ANGSTROEM)
---------------------------------
  O      0.105468    1.428240   -0.146330
  C      0.020643    0.040198   -0.000867
  C      0.292624   -0.595467    1.410684
  C     -1.110317   -1.259975    1.383588
  C     -2.296122   -0.438562    1.946095
  N     -2.019560    1.003837    1.701973
  C     -2.578014    0.163068    0.613579
  C     -1.397277   -0.635612   -0.013582
  O     -1.740924   -1.477242   -1.072576
  H     -0.446638    1.784848    0.566556
  H      0.647820   -0.406670   -0.778968
  H      1.118974   -1.309625    1.420957
  H      0.443398    0.141994    2.200553
  H     -1.194184   -2.336807    1.520094
  H     -2.971977   -0.720351    2.744294
  H     -2.787718    1.535800    2.107771
  H     -3.515035    0.418310    0.132319
  H     -1.792299   -0.940926   -1.872805

 Total Charge           Charge          ....    0
 Multiplicity           Mult            ....    1
 Number of Electrons    NEL             ....   68
 Basis Dimension        Dim             ....  333

ORBITAL ENERGIES
----------------

  NO   OCC          E(Eh)            E(eV)
   0   2.0000     -20.568182      -559.6887
   1   2.0000     -20.538456      -558.8798
   2   2.0000     -15.578094      -423.9015
   3   2.0000     -11.287125      -307.1383
   4   2.0000     -11.274582      -306.7970
   5   2.0000     -11.273222      -306.7600
   6   2.0000     -11.271188      -306.7046
   7   2.0000     -11.233238      -305.6719
   8   2.0000     -11.218136      -305.2610
   9   2.0000      -1.380982       -37.5784
  10   2.0000      -1.350358       -36.7451
  11   2.0000      -1.288780       -35.0695
  12   2.0000      -1.106863       -30.1193
  13   2.0000      -0.962526       -26.1917
  14   2.0000      -0.909396       -24.7459
  15   2.0000      -0.828061       -22.5327
  16   2.0000      -0.826602       -22.4930
  17   2.0000      -0.744774       -20.2663
  18   2.0000      -0.729500       -19.8507
  19   2.0000      -0.689363       -18.7585
  20   2.0000      -0.654071       -17.7982
  21   2.0000      -0.628247       -17.0955
  22   2.0000      -0.604320       -16.4444
  23   2.0000      -0.587525       -15.9874
  24   2.0000      -0.566254       -15.4086
  25   2.0000      -0.555174       -15.1071
  26   2.0000      -0.543480       -14.7888
  27   2.0000      -0.508962       -13.8495
  28   2.0000      -0.496462       -13.5094
  29   2.0000      -0.470448       -12.8015
  30   2.0000      -0.435553       -11.8520
  31   2.0000      -0.416480       -11.3330
  32   2.0000      -0.397417       -10.8143
  33   2.0000      -0.362568        -9.8660
  34   0.0000       0.130381         3.5479
  35   0.0000       0.142978         3.8906
  36   0.0000       0.161508         4.3949
  37   0.0000       0.173947         4.7333
  38   0.0000       0.181917         4.9502

MULLIKEN ATOMIC CHARGES
-----------------------
   0 O :   -0.466564
   1 C :   -0.057390
   2 C :   -0.215154
   3 C :   -0.103925
   4 C :   -0.103508
   5 N :   -0.433332
   6 C :   -0.202338
   7 C :    0.393947
   8 O :   -0.463345
   9 H :    0.345401
  10 H :    0.106750
  11 H :    0.119103
  12 H :    0.118876
  13 H :    0.121115
  14 H :    0.143626
  15 H :    0.220219
  16 H :    0.149945
  17 H :    0.326575
Sum of atomic charges:   -0.0000000

LOEWDIN ATOMIC CHARGES
----------------------
   0 O :   -0.015148
   1 C :   -0.300030
   2 C :   -0.203765
   3 C :   -0.147230
   4 C :   -0.200178
   5 N :   -0.007007
   6 C :   -0.196867
   7 C :   -0.300863
   8 O :    0.023756
   9 H :    0.173923
  10 H :    0.140518
  11 H :    0.131712
  12 H :    0.135753
  13 H :    0.145407
  14 H :    0.130030
  15 H :    0.173231
  16 H :    0.131007
  17 H :    0.185751

  Mayer bond orders larger than 0.1
B(  0-O ,  1-C ) :   1.0099 B(  0-O ,  9-H ) :   0.8069 B(  1-C ,  2-C ) :   0.9638
B(  1-C ,  7-C ) :   0.8733 B(  1-C , 10-H ) :   0.9414 B(  2-C ,  3-C ) :   0.9890
B(  2-C , 11-H ) :   0.9132 B(  2-C , 12-H ) :   0.9041 B(  3-C ,  4-C ) :   0.9330
B(  3-C ,  7-C ) :   0.9293 B(  3-C , 13-H ) :   0.8837 B(  4-C ,  5-N ) :   0.9145
B(  4-C ,  6-C ) :   0.8963 B(  4-C , 14-H ) :   0.9155 B(  5-N ,  6-C ) :   0.7987
B(  5-N , 15-H ) :   0.8658 B(  6-C ,  7-C ) :   0.8300 B(  6-C , 16-H ) :   0.9027
B(  7-C ,  8-O ) :   0.9865 B(  8-O , 17-H ) :   0.8351

MP2 TOTAL ENERGY:     -438.297631736 Eh
FINAL SINGLE POINT ENERGY      -438.297631736285

DIPOLE MOMENT
-------------
                                X             Y             Z
Electronic contribution:     -1.08566       0.26595      -1.98553
Nuclear contribution   :      0.11459      -0.29369       2.42845
                        -----------------------------------------
Total Dipole Moment    :     -0.97107      -0.02774       0.44291
                        -----------------------------------------
Magnitude (a.u.)       :      1.06767
Magnitude (Debye)      :      2.71379

                             ****ORCA TERMINATED NORMALLY****
TOTAL RUN TIME: 0 days 0 hours 18 minutes 2 seconds 922 msec
