                         Program Version 3.0.3 - RELEASE   -
|  1> ! RI-MP2 RIJK def2-TZVP def2-TZVP/C def2-TZVP/JK TIGHTSCF
|  2> % maxcore 2000
|  3> % mp2 density relaxed end
|  4> *xyz 0 1
|  5>  C       -0.0151145113     1.5811736487     0.2787966590
|  6>  C        1.4947518965     1.5406041965    -0.0918012733
|  7>  C        2.6057229039     0.9026820073     0.8727144551
|  8>  C        2.3796175785     0.7953546184     2.4053282411
|  9>  C        1.0331173909     0.0609894011     2.4096621929
| 10>  C        0.8464370602    -0.5267899163     1.2174164217
| 11>  C       -0.0225876959     0.0446606636     0.0658645454
| 12>  N        1.2537687132     0.1824776409    -0.7783648172
| 13>  C        2.0742429908    -0.4316146123     0.3309770947
| 14>  H       -0.3480427058     1.9800290420     1.2384701933
| 15>  H       -0.5509217100     2.0848829490    -0.5335986650
| 16>  H        1.8632308951     2.3560887033    -0.7159776822
| 17>  H        3.6098622193     1.2203623394     0.5743478673
| 18>  H        3.2215988647     0.2841564051     2.8939629762
| 19>  H        2.2700943331     1.7654273967     2.9046495659
| 20>  H        0.2358178708     0.3587044152     3.0838028769
| 21>  H       -0.8852843959    -0.4644801036    -0.3653677473
| 22>  H        2.7029287519    -1.2970817751     0.1092991556
| 23> *
| 24>
| 25>                          ****END OF INPUT****

CARTESIAN COORDINATES (ANGSTROEM)
---------------------------------
  C     -0.015115    1.581174    0.278797
  C      1.494752    1.540604   -0.091801
  C      2.605723    0.902682    0.872714
  C      2.379618    0.795355    2.405328
  C      1.033117    0.060989    2.409662
  C      0.846437   -0.526790    1.217416
  C     -0.022588    0.044661    0.065865
  N      1.253769    0.182478   -0.778365
  C      2.074243   -0.431615    0.330977
  H     -0.348043    1.980029    1.238470
  H     -0.550922    2.084883   -0.533599
  H      1.863231    2.356089   -0.715978
  H      3.609862    1.220362    0.574348
  H      3.221599    0.284156    2.893963
  H      2.270094    1.765427    2.904650
  H      0.235818    0.358704    3.083803
  H     -0.885284   -0.464480   -0.365368
  H      2.702929   -1.297082    0.109299

 Total Charge           Charge          ....    0
 Multiplicity           Mult            ....    1
 Number of Electrons    NEL             ....   64
 Basis Dimension        Dim             ....  333

ORBITAL ENERGIES
----------------

  NO   OCC          E(Eh)            E(eV)
   0   2.0000     -15.546310      -423.0366
   1   2.0000     -11.274444      -306.7932
   2   2.0000     -11.266097      -306.5661
   3   2.0000     -11.249034      -306.1018
   4   2.0000     -11.241366      -305.8931
   5   2.0000     -11.240611      -305.8726
   6   2.0000     -11.235893      -305.7442
   7   2.0000     -11.235621      -305.7368
   8   2.0000     -11.228276      -305.5369
   9   2.0000      -1.293197       -35.1897
  10   2.0000      -1.101721       -29.9793
  11   2.0000      -1.018564       -27.7165
  12   2.0000      -0.997294       -27.1378
  13   2.0000      -0.898868       -24.4594
  14   2.0000      -0.869133       -23.6503
  15   2.0000      -0.802579       -21.8393
  16   2.0000      -0.733400       -19.9568
  17   2.0000      -0.703842       -19.1525
  18   2.0000      -0.669110       -18.2074
  19   2.0000      -0.647528       -17.6201
  20   2.0000      -0.617456       -16.8018
  21   2.0000      -0.590421       -16.0662
  22   2.0000      -0.571447       -15.5499
  23   2.0000      -0.553904       -15.0725
  24   2.0000      -0.509704       -13.8698
  25   2.0000      -0.492931       -13.4133
  26   2.0000      -0.475102       -12.9282
  27   2.0000      -0.450160       -12.2495
  28   2.0000      -0.432659       -11.7733
  29   2.0000      -0.415719       -11.3123
  30   2.0000      -0.370406       -10.0793
  31   2.0000      -0.323030        -8.7901
  32   0.0000       0.101455         2.7607
  33   0.0000       0.137852         3.7512
  34   0.0000       0.160473         4.3667
  35   0.0000       0.163606         4.4519
  36   0.0000       0.178814         4.8658

MULLIKEN ATOMIC CHARGES
-----------------------
   0 C :   -0.227658
   1 C :   -0.051597
   2 C :   -0.135647
   3 C :   -0.219617
   4 C :   -0.203303
   5 C :    0.008533
   6 C :   -0.079397
   7 N :   -0.205947
   8 C :   -0.004425
   9 H :    0.120316
  10 H :    0.123114
  11 H :    0.122901
  12 H :    0.113332
  13 H :    0.127949
  14 H :    0.121463
  15 H :    0.127287
  16 H :    0.132789
  17 H :    0.129907
Sum of atomic charges:   -0.0000000

LOEWDIN ATOMIC CHARGES
----------------------
   0 C :   -0.211312
   1 C :   -0.163848
   2 C :   -0.174820
   3 C :   -0.220916
   4 C :   -0.119350
   5 C :   -0.124655
   6 C :   -0.164894
   7 N :    0.137812
   8 C :   -0.177370
   9 H :    0.128096
  10 H :    0.143218
  11 H :    0.130404
  12 H :    0.141395
  13 H :    0.139859
  14 H :    0.140472
  15 H :    0.134520
  16 H :    0.128473
  17 H :    0.132916

  Mayer bond orders larger than 0.1
B(  0-C ,  1-C ) :   0.9585 B(  0-C ,  6-C ) :   0.9598 B(  0-C ,  9-H ) :   0.9136
B(  0-C , 10-H ) :   0.9047 B(  1-C ,  2-C ) :   0.9214 B(  1-C ,  7-N ) :   0.9147
B(  1-C , 11-H ) :   0.9053 B(  2-C ,  3-C ) :   0.9567 B(  2-C ,  8-C ) :   0.9214
B(  2-C , 12-H ) :   0.9047 B(  3-C ,  4-C ) :   0.9380 B(  3-C , 13-H ) :   0.9005
B(  3-C , 14-H ) :   0.9183 B(  4-C ,  5-C ) :   1.6811 B(  4-C , 15-H ) :   0.9347
B(  5-C ,  6-C ) :   0.9456 B(  5-C ,  8-C ) :   0.9424 B(  6-C ,  7-N ) :   0.9528
B(  6-C , 16-H ) :   0.8936 B(  7-N ,  8-C ) :   0.9512 B(  8-C , 17-H ) :   0.8862

MP2 TOTAL ENERGY:     -364.036944070 Eh
FINAL SINGLE POINT ENERGY      -364.036944069851

DIPOLE MOMENT
-------------
                                X             Y             Z
Electronic contribution:     -0.40574      -3.03163      -1.79202
Nuclear contribution   :      0.41230       3.62481       2.35585
                        -----------------------------------------
Total Dipole Moment    :      0.00656       0.59318       0.56382
                        -----------------------------------------
Magnitude (a.u.)       :      0.81841
Magnitude (Debye)      :      2.08023

                             ****ORCA TERMINATED NORMALLY****
TOTAL RUN TIME: 0 days 0 hours 21 minutes 1 seconds 207 msec
