                         Program Version 3.0.3 - RELEASE   -
|  1> ! RI-MP2 RIJK def2-TZVP def2-TZVP/C def2-TZVP/JK TIGHTSCF
|  2> % maxcore 2000
|  3> % mp2 density relaxed end
|  4> *xyz 0 1
|  5>  O       -0.0387852610     1.3902440957     0.0717668394
|  6>  C        0.0274932516    -0.0056516470    -0.0083300040
|  7>  C       -0.4769487131    -0.6746932135    -1.2783742484
|  8>  C       -1.2937954860    -0.7321404161    -0.0026825928
|  9>  N       -1.3843294263    -1.9218260162     0.7776793726
| 10>  C       -0.3351439127    -2.5625177763     1.3952190820
| 11>  O       -0.4715922894    -3.6452134240     1.9403174884
| 12>  C        0.9508156777    -1.8239276873     1.3838091822
| 13>  C        1.1111250853    -0.6472577317     0.7704518890
| 14>  H        0.5801879154     1.7564129660    -0.5700890391
| 15>  H       -0.8398505513    -0.0110696016    -2.0559175415
| 16>  H        0.0220450829    -1.5777360016    -1.6110433186
| 17>  H       -2.1778642684    -0.1054796429     0.0377891380
| 18>  H       -2.2522143557    -2.4367697483     0.7804604589
| 19>  H        1.7483931874    -2.3015717308     1.9401604213
| 20>  H        2.0498961335    -0.1021451343     0.8378301326
| 21> *
| 22>
| 23>                          ****END OF INPUT****

CARTESIAN COORDINATES (ANGSTROEM)
---------------------------------
  O     -0.038785    1.390244    0.071767
  C      0.027493   -0.005652   -0.008330
  C     -0.476949   -0.674693   -1.278374
  C     -1.293795   -0.732140   -0.002683
  N     -1.384329   -1.921826    0.777679
  C     -0.335144   -2.562518    1.395219
  O     -0.471592   -3.645213    1.940317
  C      0.950816   -1.823928    1.383809
  C      1.111125   -0.647258    0.770452
  H      0.580188    1.756413   -0.570089
  H     -0.839851   -0.011070   -2.055918
  H      0.022045   -1.577736   -1.611043
  H     -2.177864   -0.105480    0.037789
  H     -2.252214   -2.436770    0.780460
  H      1.748393   -2.301572    1.940160
  H      2.049896   -0.102145    0.837830

 Total Charge           Charge          ....    0
 Multiplicity           Mult            ....    1
 Number of Electrons    NEL             ....   66
 Basis Dimension        Dim             ....  321

ORBITAL ENERGIES
----------------

  NO   OCC          E(Eh)            E(eV)
   0   2.0000     -20.586531      -560.1880
   1   2.0000     -20.514546      -558.2292
   2   2.0000     -15.587825      -424.1663
   3   2.0000     -11.351877      -308.9003
   4   2.0000     -11.317229      -307.9574
   5   2.0000     -11.292568      -307.2864
   6   2.0000     -11.269766      -306.6659
   7   2.0000     -11.249371      -306.1110
   8   2.0000     -11.246901      -306.0437
   9   2.0000      -1.399611       -38.0854
  10   2.0000      -1.378813       -37.5194
  11   2.0000      -1.254635       -34.1404
  12   2.0000      -1.133203       -30.8360
  13   2.0000      -1.079072       -29.3630
  14   2.0000      -0.904660       -24.6171
  15   2.0000      -0.869635       -23.6640
  16   2.0000      -0.837888       -22.8001
  17   2.0000      -0.757482       -20.6121
  18   2.0000      -0.712375       -19.3847
  19   2.0000      -0.693196       -18.8628
  20   2.0000      -0.680474       -18.5166
  21   2.0000      -0.640980       -17.4420
  22   2.0000      -0.637406       -17.3447
  23   2.0000      -0.591530       -16.0964
  24   2.0000      -0.584443       -15.9035
  25   2.0000      -0.577482       -15.7141
  26   2.0000      -0.556029       -15.1303
  27   2.0000      -0.533816       -14.5259
  28   2.0000      -0.473447       -12.8831
  29   2.0000      -0.459738       -12.5101
  30   2.0000      -0.426310       -11.6005
  31   2.0000      -0.373109       -10.1528
  32   2.0000      -0.371500       -10.1090
  33   0.0000       0.095295         2.5931
  34   0.0000       0.128394         3.4938
  35   0.0000       0.142491         3.8774
  36   0.0000       0.166650         4.5348
  37   0.0000       0.176935         4.8146

MULLIKEN ATOMIC CHARGES
-----------------------
   0 O :   -0.450919
   1 C :    0.250227
   2 C :   -0.316134
   3 C :   -0.010565
   4 N :   -0.296596
   5 C :    0.237261
   6 O :   -0.351978
   7 C :   -0.172666
   8 C :   -0.170956
   9 H :    0.328280
  10 H :    0.146781
  11 H :    0.145904
  12 H :    0.146350
  13 H :    0.243515
  14 H :    0.147132
  15 H :    0.124363
Sum of atomic charges:    0.0000000

LOEWDIN ATOMIC CHARGES
----------------------
   0 O :    0.032213
   1 C :   -0.334457
   2 C :   -0.183654
   3 C :   -0.211299
   4 N :    0.146641
   5 C :   -0.441467
   6 O :    0.080518
   7 C :   -0.113751
   8 C :   -0.099876
   9 H :    0.184552
  10 H :    0.140340
  11 H :    0.142095
  12 H :    0.154801
  13 H :    0.195371
  14 H :    0.157102
  15 H :    0.150868

  Mayer bond orders larger than 0.1
B(  0-O ,  1-C ) :   1.0126 B(  0-O ,  9-H ) :   0.8353 B(  1-C ,  2-C ) :   0.8543
B(  1-C ,  3-C ) :   0.8618 B(  1-C ,  8-C ) :   0.9715 B(  2-C ,  3-C ) :   0.8823
B(  2-C , 10-H ) :   0.9182 B(  2-C , 11-H ) :   0.9007 B(  3-C ,  4-N ) :   0.9332
B(  3-C , 12-H ) :   0.9130 B(  4-N ,  5-C ) :   1.1647 B(  4-N , 13-H ) :   0.8572
B(  5-C ,  6-O ) :   1.9532 B(  5-C ,  7-C ) :   0.9767 B(  7-C ,  8-C ) :   1.6589
B(  7-C , 14-H ) :   0.9296 B(  8-C , 15-H ) :   0.9166

MP2 TOTAL ENERGY:     -437.183852296 Eh
FINAL SINGLE POINT ENERGY      -437.183852296032

DIPOLE MOMENT
-------------
                                X             Y             Z
Electronic contribution:     -0.48850      -1.99055       2.94582
Nuclear contribution   :      0.67982       3.13660      -4.23877
                        -----------------------------------------
Total Dipole Moment    :      0.19132       1.14605      -1.29294
                        -----------------------------------------
Magnitude (a.u.)       :      1.73832
Magnitude (Debye)      :      4.41845

                             ****ORCA TERMINATED NORMALLY****
TOTAL RUN TIME: 0 days 0 hours 16 minutes 10 seconds 970 msec
