                         Program Version 3.0.3 - RELEASE   -
|  1> ! RI-MP2 RIJK def2-TZVP def2-TZVP/C def2-TZVP/JK TIGHTSCF
|  2> % maxcore 2000
|  3> % mp2 density relaxed end
|  4> *xyz 0 1
|  5>  O       -0.2293497495     0.0135788059     0.0000874239
|  6>  C       -0.0752207961     1.2143576188     0.0080183412
|  7>  N        1.1410927950     1.8395921390     0.0013288828
|  8>  C        2.3669863593     1.1727276644    -0.0151365703
|  9>  C        2.6354752662    -0.1648591271    -0.0284021744
| 10>  O        3.9680567701    -0.3511610143    -0.0420117569
| 11>  N        4.6109344576     0.8721550862    -0.0378510227
| 12>  C        3.6578683486     1.7706554661    -0.0217978155
| 13>  H       -0.9083450361     1.9408307245     0.0212247169
| 14>  H        1.1551438605     2.8473306524     0.0086734189
| 15>  H        2.0107227730    -1.0390854683    -0.0298005426
| 16>  H        3.9172805813     2.8203042526    -0.0155596316
| 17> *
| 18>
| 19>                          ****END OF INPUT****

CARTESIAN COORDINATES (ANGSTROEM)
---------------------------------
  O     -0.229350    0.013579    0.000087
  C     -0.075221    1.214358    0.008018
  N      1.141093    1.839592    0.001329
  C      2.366986    1.172728   -0.015137
  C      2.635475   -0.164859   -0.028402
  O      3.968057   -0.351161   -0.042012
  N      4.610934    0.872155   -0.037851
  C      3.657868    1.770655   -0.021798
  H     -0.908345    1.940831    0.021225
  H      1.155144    2.847331    0.008673
  H      2.010723   -1.039085   -0.029801
  H      3.917281    2.820304   -0.015560

 Total Charge           Charge          ....    0
 Multiplicity           Mult            ....    1
 Number of Electrons    NEL             ....   58
 Basis Dimension        Dim             ....  272

ORBITAL ENERGIES
----------------

  NO   OCC          E(Eh)            E(eV)
   0   2.0000     -20.650818      -561.9373
   1   2.0000     -20.550967      -559.2202
   2   2.0000     -15.634739      -425.4429
   3   2.0000     -15.630830      -425.3365
   4   2.0000     -11.375995      -309.5566
   5   2.0000     -11.311041      -307.7891
   6   2.0000     -11.295046      -307.3538
   7   2.0000     -11.292329      -307.2799
   8   2.0000      -1.502834       -40.8942
   9   2.0000      -1.412518       -38.4366
  10   2.0000      -1.278773       -34.7972
  11   2.0000      -1.170543       -31.8521
  12   2.0000      -1.072711       -29.1899
  13   2.0000      -0.902098       -24.5473
  14   2.0000      -0.849367       -23.1125
  15   2.0000      -0.807032       -21.9604
  16   2.0000      -0.773121       -21.0377
  17   2.0000      -0.720578       -19.6079
  18   2.0000      -0.681180       -18.5359
  19   2.0000      -0.669563       -18.2197
  20   2.0000      -0.632768       -17.2185
  21   2.0000      -0.609759       -16.5924
  22   2.0000      -0.598556       -16.2875
  23   2.0000      -0.573806       -15.6141
  24   2.0000      -0.492547       -13.4029
  25   2.0000      -0.491216       -13.3667
  26   2.0000      -0.460099       -12.5199
  27   2.0000      -0.420991       -11.4558
  28   2.0000      -0.343014        -9.3339
  29   0.0000       0.109751         2.9865
  30   0.0000       0.109981         2.9927
  31   0.0000       0.145606         3.9621
  32   0.0000       0.159364         4.3365
  33   0.0000       0.183338         4.9889

MULLIKEN ATOMIC CHARGES
-----------------------
   0 O :   -0.351998
   1 C :    0.215093
   2 N :   -0.321308
   3 C :    0.133724
   4 C :   -0.034663
   5 O :   -0.093399
   6 N :   -0.108052
   7 C :   -0.135619
   8 H :    0.096521
   9 H :    0.249833
  10 H :    0.198954
  11 H :    0.150915
Sum of atomic charges:   -0.0000000

LOEWDIN ATOMIC CHARGES
----------------------
   0 O :    0.086212
   1 C :   -0.408323
   2 N :    0.138176
   3 C :   -0.250175
   4 C :   -0.234707
   5 O :    0.282873
   6 N :    0.032955
   7 C :   -0.253218
   8 H :    0.116296
   9 H :    0.199667
  10 H :    0.147141
  11 H :    0.143102

  Mayer bond orders larger than 0.1
B(  0-O ,  1-C ) :   1.8801 B(  1-C ,  2-N ) :   1.1019 B(  1-C ,  8-H ) :   0.9266
B(  2-N ,  3-C ) :   0.9482 B(  2-N ,  9-H ) :   0.8696 B(  3-C ,  4-C ) :   1.5257
B(  3-C ,  7-C ) :   1.1991 B(  4-C ,  5-O ) :   1.1038 B(  4-C ,  6-N ) :   0.1107
B(  4-C , 10-H ) :   0.8865 B(  5-O ,  6-N ) :   0.9085 B(  6-N ,  7-C ) :   1.5777
B(  7-C , 11-H ) :   0.9259

MP2 TOTAL ENERGY:     -413.996339143 Eh
FINAL SINGLE POINT ENERGY      -413.996339143333

DIPOLE MOMENT
-------------
                                X             Y             Z
Electronic contribution:      1.88361      -1.62994      -0.03007
Nuclear contribution   :     -2.57118       3.22340       0.04851
                        -----------------------------------------
Total Dipole Moment    :     -0.68757       1.59346       0.01844
                        -----------------------------------------
Magnitude (a.u.)       :      1.73558
Magnitude (Debye)      :      4.41148

                             ****ORCA TERMINATED NORMALLY****
TOTAL RUN TIME: 0 days 0 hours 8 minutes 39 seconds 746 msec
