                         Program Version 3.0.3 - RELEASE   -
|  1> ! RI-MP2 RIJK def2-TZVP def2-TZVP/C def2-TZVP/JK TIGHTSCF
|  2> % maxcore 2000
|  3> % mp2 density relaxed end
|  4> *xyz 0 1
|  5>  C        0.2340747568     1.5631351971     0.1063376617
|  6>  C        0.0472041791     0.0730961738    -0.0670901720
|  7>  C        0.4807394808    -0.6175131173    -1.3358734608
|  8>  O        1.0852469495     0.1713182211    -2.3257807813
|  9>  C        2.3695648458    -0.2344633785    -2.6604781518
| 10>  O        3.3766473822     0.3508488602    -1.8382770691
| 11>  C        3.3841302968     0.0970251499    -0.5029266948
| 12>  N        2.5387922322    -0.4200385741     0.2773811403
| 13>  C        1.2324037875    -0.8862156551    -0.0461068154
| 14>  H        1.0977412355     1.9287937816    -0.4506814347
| 15>  H       -0.6466335246     2.1017268472    -0.2583749286
| 16>  H        0.3741058547     1.8155452051     1.1618109536
| 17>  H       -0.8587232221    -0.3228628651     0.3835649017
| 18>  H       -0.1405477293    -1.4117099688    -1.7473932803
| 19>  H        2.4674267651    -1.3279392377    -2.6205382013
| 20>  H        2.5867077069     0.1373396808    -3.6634268396
| 21>  H        4.3281307968     0.4562147295    -0.0946541073
| 22>  H        1.0303286264    -1.8455101695     0.4231324097
| 23> *
| 24>
| 25>                          ****END OF INPUT****

CARTESIAN COORDINATES (ANGSTROEM)
---------------------------------
  C      0.234075    1.563135    0.106338
  C      0.047204    0.073096   -0.067090
  C      0.480739   -0.617513   -1.335873
  O      1.085247    0.171318   -2.325781
  C      2.369565   -0.234463   -2.660478
  O      3.376647    0.350849   -1.838277
  C      3.384130    0.097025   -0.502927
  N      2.538792   -0.420039    0.277381
  C      1.232404   -0.886216   -0.046107
  H      1.097741    1.928794   -0.450681
  H     -0.646634    2.101727   -0.258375
  H      0.374106    1.815545    1.161811
  H     -0.858723   -0.322863    0.383565
  H     -0.140548   -1.411710   -1.747393
  H      2.467427   -1.327939   -2.620538
  H      2.586708    0.137340   -3.663427
  H      4.328131    0.456215   -0.094654
  H      1.030329   -1.845510    0.423132

 Total Charge           Charge          ....    0
 Multiplicity           Mult            ....    1
 Number of Electrons    NEL             ....   68
 Basis Dimension        Dim             ....  333

ORBITAL ENERGIES
----------------

  NO   OCC          E(Eh)            E(eV)
   0   2.0000     -20.599650      -560.5450
   1   2.0000     -20.581256      -560.0444
   2   2.0000     -15.552926      -423.2166
   3   2.0000     -11.349370      -308.8321
   4   2.0000     -11.339049      -308.5512
   5   2.0000     -11.288016      -307.1625
   6   2.0000     -11.266712      -306.5828
   7   2.0000     -11.236769      -305.7680
   8   2.0000     -11.214663      -305.1665
   9   2.0000      -1.452767       -39.5318
  10   2.0000      -1.386689       -37.7337
  11   2.0000      -1.234381       -33.5892
  12   2.0000      -1.122115       -30.5343
  13   2.0000      -0.981512       -26.7083
  14   2.0000      -0.966041       -26.2873
  15   2.0000      -0.851008       -23.1571
  16   2.0000      -0.813599       -22.1391
  17   2.0000      -0.775353       -21.0984
  18   2.0000      -0.729103       -19.8399
  19   2.0000      -0.706742       -19.2314
  20   2.0000      -0.684611       -18.6292
  21   2.0000      -0.650620       -17.7043
  22   2.0000      -0.624456       -16.9923
  23   2.0000      -0.580821       -15.8049
  24   2.0000      -0.574134       -15.6230
  25   2.0000      -0.564922       -15.3723
  26   2.0000      -0.547663       -14.9027
  27   2.0000      -0.527464       -14.3530
  28   2.0000      -0.509978       -13.8772
  29   2.0000      -0.487245       -13.2586
  30   2.0000      -0.469752       -12.7826
  31   2.0000      -0.442825       -12.0499
  32   2.0000      -0.381507       -10.3813
  33   2.0000      -0.362705        -9.8697
  34   0.0000       0.137158         3.7323
  35   0.0000       0.162556         4.4234
  36   0.0000       0.169096         4.6013
  37   0.0000       0.171995         4.6802
  38   0.0000       0.188473         5.1286

MULLIKEN ATOMIC CHARGES
-----------------------
   0 C :   -0.414083
   1 C :   -0.063044
   2 C :   -0.007210
   3 O :   -0.304013
   4 C :    0.071831
   5 O :   -0.260626
   6 C :    0.087122
   7 N :   -0.264913
   8 C :   -0.037967
   9 H :    0.147825
  10 H :    0.134478
  11 H :    0.139793
  12 H :    0.124895
  13 H :    0.121540
  14 H :    0.116071
  15 H :    0.139237
  16 H :    0.138434
  17 H :    0.130631
Sum of atomic charges:    0.0000000

LOEWDIN ATOMIC CHARGES
----------------------
   0 C :   -0.286383
   1 C :   -0.207423
   2 C :   -0.277010
   3 O :    0.212124
   4 C :   -0.363668
   5 O :    0.214401
   6 C :   -0.360232
   7 N :    0.114358
   8 C :   -0.250870
   9 H :    0.130810
  10 H :    0.128713
  11 H :    0.129565
  12 H :    0.150195
  13 H :    0.135412
  14 H :    0.118520
  15 H :    0.126514
  16 H :    0.135834
  17 H :    0.149139

  Mayer bond orders larger than 0.1
B(  0-C ,  1-C ) :   0.9077 B(  0-C ,  9-H ) :   0.9330 B(  0-C , 10-H ) :   0.9345
B(  0-C , 11-H ) :   0.9342 B(  1-C ,  2-C ) :   0.8656 B(  1-C ,  8-C ) :   0.8478
B(  1-C , 12-H ) :   0.9210 B(  2-C ,  3-O ) :   0.9305 B(  2-C ,  8-C ) :   0.8559
B(  2-C , 13-H ) :   0.9371 B(  3-O ,  4-C ) :   0.9771 B(  4-C ,  5-O ) :   0.8943
B(  4-C , 14-H ) :   0.9420 B(  4-C , 15-H ) :   0.9295 B(  5-O ,  6-C ) :   1.0435
B(  6-C ,  7-N ) :   1.8350 B(  6-C , 16-H ) :   0.9273 B(  7-N ,  8-C ) :   0.9663
B(  8-C , 17-H ) :   0.9358

MP2 TOTAL ENERGY:     -438.340443611 Eh
FINAL SINGLE POINT ENERGY      -438.340443610681

DIPOLE MOMENT
-------------
                                X             Y             Z
Electronic contribution:      4.05033      -1.61370      -2.11235
Nuclear contribution   :     -4.34056       1.17856       1.75232
                        -----------------------------------------
Total Dipole Moment    :     -0.29023      -0.43514      -0.36003
                        -----------------------------------------
Magnitude (a.u.)       :      0.63498
Magnitude (Debye)      :      1.61400

                             ****ORCA TERMINATED NORMALLY****
TOTAL RUN TIME: 0 days 0 hours 17 minutes 35 seconds 210 msec
