                         Program Version 3.0.3 - RELEASE   -
|  1> ! RI-MP2 RIJK def2-TZVP def2-TZVP/C def2-TZVP/JK TIGHTSCF
|  2> % maxcore 2000
|  3> % mp2 density relaxed end
|  4> *xyz 0 1
|  5>  C       -0.0107257012     1.2900095299    -0.3421826034
|  6>  N       -0.0659198563    -0.0958271765     0.0721472047
|  7>  C       -1.3028128272    -0.6365849412     0.6663375934
|  8>  C       -0.4253347656    -1.5497248402     1.5537215108
|  9>  O       -0.2158593552    -2.8536324274     1.0376112162
| 10>  C        0.7043851760    -0.5162027830     1.2618245260
| 11>  C        2.1599904798    -0.8745792819     0.9711185679
| 12>  N        2.5401300354    -2.1319486316     1.3273372789
| 13>  O        2.9110248068    -0.0489243026     0.4851522125
| 14>  H        1.0206310789     1.5399337853    -0.5997708997
| 15>  H       -0.6424003834     1.4402207272    -1.2240443931
| 16>  H       -0.3522911461     1.9826875214     0.4504209187
| 17>  H       -1.8621912068     0.1007252512     1.2668781834
| 18>  H       -1.9899999825    -1.1264017064    -0.0329570915
| 19>  H       -0.7176443491    -1.6778606350     2.5955274516
| 20>  H       -0.0721792057    -2.7626897736     0.0870540113
| 21>  H        0.7148744115     0.2570386133     2.0512245325
| 22>  H        1.8308755504    -2.8355764887     1.4792106467
| 23>  H        3.4733946504    -2.4189682304     1.0748122332
| 24> *
| 25>
| 26>                          ****END OF INPUT****

CARTESIAN COORDINATES (ANGSTROEM)
---------------------------------
  C     -0.010726    1.290010   -0.342183
  N     -0.065920   -0.095827    0.072147
  C     -1.302813   -0.636585    0.666338
  C     -0.425335   -1.549725    1.553722
  O     -0.215859   -2.853632    1.037611
  C      0.704385   -0.516203    1.261825
  C      2.159990   -0.874579    0.971119
  N      2.540130   -2.131949    1.327337
  O      2.911025   -0.048924    0.485152
  H      1.020631    1.539934   -0.599771
  H     -0.642400    1.440221   -1.224044
  H     -0.352291    1.982688    0.450421
  H     -1.862191    0.100725    1.266878
  H     -1.990000   -1.126402   -0.032957
  H     -0.717644   -1.677861    2.595527
  H     -0.072179   -2.762690    0.087054
  H      0.714874    0.257039    2.051225
  H      1.830876   -2.835576    1.479211
  H      3.473395   -2.418968    1.074812

 Total Charge           Charge          ....    0
 Multiplicity           Mult            ....    1
 Number of Electrons    NEL             ....   70
 Basis Dimension        Dim             ....  339

ORBITAL ENERGIES
----------------

  NO   OCC          E(Eh)            E(eV)
   0   2.0000     -20.582113      -560.0678
   1   2.0000     -20.515642      -558.2590
   2   2.0000     -15.577841      -423.8946
   3   2.0000     -15.563681      -423.5093
   4   2.0000     -11.348904      -308.8194
   5   2.0000     -11.305213      -307.6305
   6   2.0000     -11.276459      -306.8480
   7   2.0000     -11.267219      -306.5966
   8   2.0000     -11.243164      -305.9421
   9   2.0000      -1.393433       -37.9172
  10   2.0000      -1.378359       -37.5071
  11   2.0000      -1.260467       -34.2991
  12   2.0000      -1.208092       -32.8739
  13   2.0000      -1.029920       -28.0255
  14   2.0000      -0.964104       -26.2346
  15   2.0000      -0.887531       -24.1510
  16   2.0000      -0.825482       -22.4625
  17   2.0000      -0.771842       -21.0029
  18   2.0000      -0.732966       -19.9450
  19   2.0000      -0.714818       -19.4512
  20   2.0000      -0.682403       -18.5691
  21   2.0000      -0.633414       -17.2361
  22   2.0000      -0.626631       -17.0515
  23   2.0000      -0.621629       -16.9154
  24   2.0000      -0.598747       -16.2927
  25   2.0000      -0.588632       -16.0175
  26   2.0000      -0.568835       -15.4788
  27   2.0000      -0.552580       -15.0365
  28   2.0000      -0.543048       -14.7771
  29   2.0000      -0.499671       -13.5967
  30   2.0000      -0.478684       -13.0257
  31   2.0000      -0.456048       -12.4097
  32   2.0000      -0.421673       -11.4743
  33   2.0000      -0.409725       -11.1492
  34   2.0000      -0.373065       -10.1516
  35   0.0000       0.132817         3.6141
  36   0.0000       0.148373         4.0374
  37   0.0000       0.156314         4.2535
  38   0.0000       0.168248         4.5783
  39   0.0000       0.173416         4.7189

MULLIKEN ATOMIC CHARGES
-----------------------
   0 C :   -0.350553
   1 N :   -0.175669
   2 C :   -0.178759
   3 C :    0.105227
   4 O :   -0.493254
   5 C :   -0.041268
   6 C :    0.220639
   7 N :   -0.461370
   8 O :   -0.357609
   9 H :    0.171566
  10 H :    0.132863
  11 H :    0.102450
  12 H :    0.102121
  13 H :    0.125203
  14 H :    0.131873
  15 H :    0.333803
  16 H :    0.097754
  17 H :    0.280713
  18 H :    0.254269
Sum of atomic charges:    0.0000000

LOEWDIN ATOMIC CHARGES
----------------------
   0 C :   -0.331112
   1 N :    0.087702
   2 C :   -0.246491
   3 C :   -0.295766
   4 O :   -0.019025
   5 C :   -0.213374
   6 C :   -0.468494
   7 N :   -0.010137
   8 O :    0.083512
   9 H :    0.128302
  10 H :    0.117455
  11 H :    0.102384
  12 H :    0.124871
  13 H :    0.123415
  14 H :    0.135262
  15 H :    0.184046
  16 H :    0.152518
  17 H :    0.172213
  18 H :    0.172717

  Mayer bond orders larger than 0.1
B(  0-C ,  1-N ) :   0.9249 B(  0-C ,  9-H ) :   0.9279 B(  0-C , 10-H ) :   0.9319
B(  0-C , 11-H ) :   0.9317 B(  1-N ,  2-C ) :   0.9057 B(  1-N ,  5-C ) :   0.8899
B(  2-C ,  3-C ) :   0.9336 B(  2-C , 12-H ) :   0.9128 B(  2-C , 13-H ) :   0.9163
B(  3-C ,  4-O ) :   0.9014 B(  3-C ,  5-C ) :   0.9008 B(  3-C , 14-H ) :   0.9341
B(  4-O , 15-H ) :   0.8268 B(  5-C ,  6-C ) :   0.8835 B(  5-C , 16-H ) :   0.8929
B(  6-C ,  7-N ) :   1.2011 B(  6-C ,  8-O ) :   1.9721 B(  7-N , 17-H ) :   0.8386
B(  7-N , 18-H ) :   0.8601

MP2 TOTAL ENERGY:     -455.617867863 Eh
FINAL SINGLE POINT ENERGY      -455.617867863162

DIPOLE MOMENT
-------------
                                X             Y             Z
Electronic contribution:      4.51632      -3.27204       0.76536
Nuclear contribution   :     -5.34211       2.79536      -0.54265
                        -----------------------------------------
Total Dipole Moment    :     -0.82579      -0.47669       0.22270
                        -----------------------------------------
Magnitude (a.u.)       :      0.97916
Magnitude (Debye)      :      2.48882

                             ****ORCA TERMINATED NORMALLY****
TOTAL RUN TIME: 0 days 0 hours 18 minutes 21 seconds 737 msec
