                         Program Version 3.0.3 - RELEASE   -
|  1> ! RI-MP2 RIJK def2-TZVP def2-TZVP/C def2-TZVP/JK TIGHTSCF
|  2> % maxcore 2000
|  3> % mp2 density relaxed end
|  4> *xyz 0 1
|  5>  C       -0.7710811942     1.1868200303    -0.1278324826
|  6>  C       -0.0254981853    -0.1394713334    -0.1022926230
|  7>  C        1.2867732101    -0.2820187580    -0.9265243156
|  8>  O        1.9029073621     0.9857576115    -1.0969488601
|  9>  C        1.9372521543    -1.0560994944     0.2741349346
| 10>  O        3.2493106013    -0.6905325424     0.6056988132
| 11>  C        0.7785921988    -0.5515494536     1.1454814281
| 12>  C        0.8966027840     0.1803392219     2.4251377969
| 13>  N        0.3164523317    -1.1800139936     2.3758415603
| 14>  H       -0.0934681998     2.0209110885     0.0659534203
| 15>  H       -1.2425194524     1.3547034609    -1.1014765594
| 16>  H       -1.5644365053     1.2007435610     0.6281571159
| 17>  H       -0.7014315683    -0.9564869360    -0.3845342710
| 18>  H        1.2062533742    -0.8116615006    -1.8826692429
| 19>  H        2.7306970320     0.8392921878    -1.5671309471
| 20>  H        1.9228263818    -2.1423017780     0.1484913183
| 21>  H        3.2555646955     0.2755243299     0.6095797024
| 22>  H        1.8630061408     0.2396341695     2.9182558936
| 23>  H        0.2381686315     1.0275316440     2.5987633854
| 24>  H       -0.6989397928    -1.1224180454     2.4338707225
| 25> *
| 26>
| 27>                          ****END OF INPUT****

CARTESIAN COORDINATES (ANGSTROEM)
---------------------------------
  C     -0.771081    1.186820   -0.127832
  C     -0.025498   -0.139471   -0.102293
  C      1.286773   -0.282019   -0.926524
  O      1.902907    0.985758   -1.096949
  C      1.937252   -1.056099    0.274135
  O      3.249311   -0.690533    0.605699
  C      0.778592   -0.551549    1.145481
  C      0.896603    0.180339    2.425138
  N      0.316452   -1.180014    2.375842
  H     -0.093468    2.020911    0.065953
  H     -1.242519    1.354703   -1.101477
  H     -1.564437    1.200744    0.628157
  H     -0.701432   -0.956487   -0.384534
  H      1.206253   -0.811662   -1.882669
  H      2.730697    0.839292   -1.567131
  H      1.922826   -2.142302    0.148491
  H      3.255565    0.275524    0.609580
  H      1.863006    0.239634    2.918256
  H      0.238169    1.027532    2.598763
  H     -0.698940   -1.122418    2.433871

 Total Charge           Charge          ....    0
 Multiplicity           Mult            ....    1
 Number of Electrons    NEL             ....   70
 Basis Dimension        Dim             ....  345

ORBITAL ENERGIES
----------------

  NO   OCC          E(Eh)            E(eV)
   0   2.0000     -20.572987      -559.8194
   1   2.0000     -20.559101      -559.4416
   2   2.0000     -15.557323      -423.3363
   3   2.0000     -11.287214      -307.1407
   4   2.0000     -11.279379      -306.9275
   5   2.0000     -11.260881      -306.4242
   6   2.0000     -11.254203      -306.2424
   7   2.0000     -11.239992      -305.8557
   8   2.0000     -11.219960      -305.3106
   9   2.0000      -1.390003       -37.8239
  10   2.0000      -1.357933       -36.9512
  11   2.0000      -1.262557       -34.3559
  12   2.0000      -1.105475       -30.0815
  13   2.0000      -0.984111       -26.7790
  14   2.0000      -0.890213       -24.2239
  15   2.0000      -0.856648       -23.3106
  16   2.0000      -0.841292       -22.8927
  17   2.0000      -0.752210       -20.4687
  18   2.0000      -0.714950       -19.4548
  19   2.0000      -0.709622       -19.3098
  20   2.0000      -0.665812       -18.1177
  21   2.0000      -0.633521       -17.2390
  22   2.0000      -0.605128       -16.4664
  23   2.0000      -0.596249       -16.2248
  24   2.0000      -0.578054       -15.7296
  25   2.0000      -0.560034       -15.2393
  26   2.0000      -0.550150       -14.9703
  27   2.0000      -0.526343       -14.3225
  28   2.0000      -0.512888       -13.9564
  29   2.0000      -0.503826       -13.7098
  30   2.0000      -0.477621       -12.9967
  31   2.0000      -0.439550       -11.9608
  32   2.0000      -0.435968       -11.8633
  33   2.0000      -0.413922       -11.2634
  34   2.0000      -0.378600       -10.3022
  35   0.0000       0.122229         3.3260
  36   0.0000       0.140941         3.8352
  37   0.0000       0.147624         4.0171
  38   0.0000       0.171018         4.6536
  39   0.0000       0.185595         5.0503

MULLIKEN ATOMIC CHARGES
-----------------------
   0 C :   -0.453199
   1 C :    0.092147
   2 C :   -0.085891
   3 O :   -0.478502
   4 C :    0.162178
   5 O :   -0.467896
   6 C :   -0.021047
   7 C :   -0.233256
   8 N :   -0.376445
   9 H :    0.155375
  10 H :    0.135821
  11 H :    0.129840
  12 H :    0.107771
  13 H :    0.097572
  14 H :    0.329284
  15 H :    0.110444
  16 H :    0.319534
  17 H :    0.126759
  18 H :    0.133007
  19 H :    0.216503
Sum of atomic charges:    0.0000000

LOEWDIN ATOMIC CHARGES
----------------------
   0 C :   -0.294356
   1 C :   -0.205787
   2 C :   -0.277618
   3 O :   -0.014254
   4 C :   -0.281287
   5 O :   -0.004382
   6 C :   -0.271245
   7 C :   -0.237943
   8 N :    0.006688
   9 H :    0.129889
  10 H :    0.127347
  11 H :    0.123729
  12 H :    0.157338
  13 H :    0.122161
  14 H :    0.179688
  15 H :    0.145807
  16 H :    0.175722
  17 H :    0.128059
  18 H :    0.122908
  19 H :    0.167536

  Mayer bond orders larger than 0.1
B(  0-C ,  1-C ) :   0.8675 B(  0-C ,  9-H ) :   0.9354 B(  0-C , 10-H ) :   0.9356
B(  0-C , 11-H ) :   0.9404 B(  1-C ,  2-C ) :   0.9051 B(  1-C ,  6-C ) :   0.8814
B(  1-C , 12-H ) :   0.9110 B(  2-C ,  3-O ) :   1.0941 B(  2-C ,  4-C ) :   0.8806
B(  2-C , 13-H ) :   0.9544 B(  3-O , 14-H ) :   0.8360 B(  4-C ,  5-O ) :   0.9881
B(  4-C ,  6-C ) :   0.8541 B(  4-C , 15-H ) :   0.9121 B(  5-O , 16-H ) :   0.8271
B(  6-C ,  7-C ) :   0.8777 B(  6-C ,  8-N ) :   0.9163 B(  7-C ,  8-N ) :   0.9836
B(  7-C , 17-H ) :   0.9184 B(  7-C , 18-H ) :   0.9167 B(  8-N , 19-H ) :   0.8689

MP2 TOTAL ENERGY:     -439.529078959 Eh
FINAL SINGLE POINT ENERGY      -439.529078958960

DIPOLE MOMENT
-------------
                                X             Y             Z
Electronic contribution:      4.38912      -2.72870       0.12797
Nuclear contribution   :     -4.90747       3.23260      -0.79055
                        -----------------------------------------
Total Dipole Moment    :     -0.51835       0.50390      -0.66258
                        -----------------------------------------
Magnitude (a.u.)       :      0.98062
Magnitude (Debye)      :      2.49253

                             ****ORCA TERMINATED NORMALLY****
TOTAL RUN TIME: 0 days 0 hours 17 minutes 15 seconds 743 msec
