                         Program Version 3.0.3 - RELEASE   -
|  1> ! RI-MP2 RIJK def2-TZVP def2-TZVP/C def2-TZVP/JK TIGHTSCF
|  2> % maxcore 2000
|  3> % mp2 density relaxed end
|  4> *xyz 0 1
|  5>  O        0.7833851813    -0.2294465250     0.4874936524
|  6>  C        0.4012033766     0.9081613486     0.4183320221
|  7>  C        1.2325436859     2.1132219066    -0.0054684726
|  8>  C        1.4625932567     3.0968916077     1.1766000632
|  9>  C        2.8691985771     2.7341189481     1.6629618186
| 10>  C        3.0296470717     1.4783175478     2.5738362007
| 11>  C        3.7417962510     0.7227018935     1.4135664315
| 12>  C        3.5048238848     1.9423346206     0.4807214770
| 13>  O        2.5013018422     1.7782461826    -0.5159868160
| 14>  H       -0.6535395921     1.1821654048     0.6657434333
| 15>  H        0.6578789555     2.5990989240    -0.8082691400
| 16>  H        1.4346985182     4.1243368613     0.8041979789
| 17>  H        0.7004300064     3.0057364419     1.9567170532
| 18>  H        3.4211731082     3.6110832991     2.0040523523
| 19>  H        3.6414025153     1.6456347380     3.4629222613
| 20>  H        2.0849822644     1.0311215396     2.8944204384
| 21>  H        4.7991456584     0.5173688639     1.5979775034
| 22>  H        3.2490488129    -0.1854260827     1.0673673788
| 23>  H        4.3881754955     2.3511738995    -0.0158786763
| 24> *
| 25>
| 26>                          ****END OF INPUT****

CARTESIAN COORDINATES (ANGSTROEM)
---------------------------------
  O      0.783385   -0.229447    0.487494
  C      0.401203    0.908161    0.418332
  C      1.232544    2.113222   -0.005468
  C      1.462593    3.096892    1.176600
  C      2.869199    2.734119    1.662962
  C      3.029647    1.478318    2.573836
  C      3.741796    0.722702    1.413566
  C      3.504824    1.942335    0.480721
  O      2.501302    1.778246   -0.515987
  H     -0.653540    1.182165    0.665743
  H      0.657879    2.599099   -0.808269
  H      1.434699    4.124337    0.804198
  H      0.700430    3.005736    1.956717
  H      3.421173    3.611083    2.004052
  H      3.641403    1.645635    3.462922
  H      2.084982    1.031122    2.894420
  H      4.799146    0.517369    1.597978
  H      3.249049   -0.185426    1.067367
  H      4.388175    2.351174   -0.015879

 Total Charge           Charge          ....    0
 Multiplicity           Mult            ....    1
 Number of Electrons    NEL             ....   68
 Basis Dimension        Dim             ....  339

ORBITAL ENERGIES
----------------

  NO   OCC          E(Eh)            E(eV)
   0   2.0000     -20.560136      -559.4697
   1   2.0000     -20.559974      -559.4653
   2   2.0000     -11.332689      -308.3782
   3   2.0000     -11.298972      -307.4607
   4   2.0000     -11.277226      -306.8689
   5   2.0000     -11.244856      -305.9881
   6   2.0000     -11.235416      -305.7312
   7   2.0000     -11.223624      -305.4103
   8   2.0000     -11.213027      -305.1220
   9   2.0000      -1.406867       -38.2828
  10   2.0000      -1.381454       -37.5913
  11   2.0000      -1.122982       -30.5579
  12   2.0000      -1.056922       -28.7603
  13   2.0000      -0.949550       -25.8386
  14   2.0000      -0.887002       -24.1365
  15   2.0000      -0.847064       -23.0498
  16   2.0000      -0.785671       -21.3792
  17   2.0000      -0.736296       -20.0356
  18   2.0000      -0.716277       -19.4909
  19   2.0000      -0.682809       -18.5802
  20   2.0000      -0.654662       -17.8143
  21   2.0000      -0.632137       -17.2013
  22   2.0000      -0.605397       -16.4737
  23   2.0000      -0.590860       -16.0781
  24   2.0000      -0.567164       -15.4333
  25   2.0000      -0.544354       -14.8126
  26   2.0000      -0.539190       -14.6721
  27   2.0000      -0.517030       -14.0691
  28   2.0000      -0.483615       -13.1598
  29   2.0000      -0.473497       -12.8845
  30   2.0000      -0.460600       -12.5336
  31   2.0000      -0.433681       -11.8011
  32   2.0000      -0.420772       -11.4498
  33   2.0000      -0.398248       -10.8369
  34   0.0000       0.120069         3.2673
  35   0.0000       0.143707         3.9105
  36   0.0000       0.154563         4.2059
  37   0.0000       0.164787         4.4841
  38   0.0000       0.174929         4.7601

MULLIKEN ATOMIC CHARGES
-----------------------
   0 O :   -0.257674
   1 C :    0.048580
   2 C :    0.172690
   3 C :   -0.336266
   4 C :   -0.009305
   5 C :   -0.288532
   6 C :   -0.211370
   7 C :    0.013891
   8 O :   -0.311010
   9 H :    0.071433
  10 H :    0.122851
  11 H :    0.132291
  12 H :    0.138382
  13 H :    0.115348
  14 H :    0.118760
  15 H :    0.118085
  16 H :    0.115248
  17 H :    0.140210
  18 H :    0.106389
Sum of atomic charges:   -0.0000000

LOEWDIN ATOMIC CHARGES
----------------------
   0 O :    0.146171
   1 C :   -0.286132
   2 C :   -0.319482
   3 C :   -0.213437
   4 C :   -0.202957
   5 C :   -0.219997
   6 C :   -0.221754
   7 C :   -0.251694
   8 O :    0.212203
   9 H :    0.112372
  10 H :    0.155290
  11 H :    0.142628
  12 H :    0.143567
  13 H :    0.145077
  14 H :    0.127922
  15 H :    0.131099
  16 H :    0.130047
  17 H :    0.138276
  18 H :    0.130800

  Mayer bond orders larger than 0.1
B(  0-O ,  1-C ) :   2.0039 B(  1-C ,  2-C ) :   0.8351 B(  1-C ,  9-H ) :   0.9274
B(  2-C ,  3-C ) :   0.8919 B(  2-C ,  8-O ) :   0.9416 B(  2-C , 10-H ) :   0.9084
B(  3-C ,  4-C ) :   0.9017 B(  3-C , 11-H ) :   0.9212 B(  3-C , 12-H ) :   0.9267
B(  4-C ,  5-C ) :   0.9292 B(  4-C ,  7-C ) :   0.9243 B(  4-C , 13-H ) :   0.9156
B(  5-C ,  6-C ) :   0.9573 B(  5-C , 14-H ) :   0.9186 B(  5-C , 15-H ) :   0.9177
B(  6-C ,  7-C ) :   0.9017 B(  6-C , 16-H ) :   0.9144 B(  6-C , 17-H ) :   0.9046
B(  7-C ,  8-O ) :   0.9537 B(  7-C , 18-H ) :   0.9428

MP2 TOTAL ENERGY:     -422.316804018 Eh
FINAL SINGLE POINT ENERGY      -422.316804018038

DIPOLE MOMENT
-------------
                                X             Y             Z
Electronic contribution:     -2.17347      -2.55094      -4.36276
Nuclear contribution   :      2.04765       3.68764       4.87743
                        -----------------------------------------
Total Dipole Moment    :     -0.12582       1.13670       0.51467
                        -----------------------------------------
Magnitude (a.u.)       :      1.25412
Magnitude (Debye)      :      3.18771

                             ****ORCA TERMINATED NORMALLY****
TOTAL RUN TIME: 0 days 0 hours 19 minutes 36 seconds 633 msec
