                         Program Version 3.0.3 - RELEASE   -
|  1> ! RI-MP2 RIJK def2-TZVP def2-TZVP/C def2-TZVP/JK TIGHTSCF
|  2> % maxcore 2000
|  3> % mp2 density relaxed end
|  4> *xyz 0 1
|  5>  C       -0.0197314213     1.5887357681     0.1045630893
|  6>  C        0.1203725324     0.0724357145    -0.0849666320
|  7>  C        0.6784899789    -0.5991334928     1.1436760376
|  8>  C        2.1642419619    -0.4575491685     1.5328726779
|  9>  O        2.2521339686    -1.8754865684     1.8352155313
| 10>  C        0.8938510073    -2.1036620686     1.4226630340
| 11>  C       -0.1391545476    -1.9217602218     2.5526329793
| 12>  C        0.2464164993    -2.2775122834     3.9703632858
| 13>  O       -0.1802308454    -0.4826473962     2.3046368870
| 14>  H        0.9533641403     2.0616424558     0.2768749288
| 15>  H       -0.4640606757     2.0543385494    -0.7795639529
| 16>  H       -0.6572206478     1.8066773588     0.9656172827
| 17>  H       -0.8595867711    -0.3647880599    -0.3096970658
| 18>  H        0.7732620267    -0.1478607556    -0.9384491715
| 19>  H        2.8416976268    -0.1894148681     0.7115766827
| 20>  H        2.3589335482     0.1740631595     2.4053556632
| 21>  H        0.7932170712    -2.9366090073     0.7236932211
| 22>  H       -1.1101022554    -2.3635151069     2.2846031691
| 23>  H        1.2674541527    -1.9523142735     4.1810113711
| 24>  H       -0.4363405067    -1.7959630686     4.6768421461
| 25>  H        0.1862840267    -3.3608482765     4.1206438051
| 26> *
| 27>
| 28>                          ****END OF INPUT****

CARTESIAN COORDINATES (ANGSTROEM)
---------------------------------
  C     -0.019731    1.588736    0.104563
  C      0.120373    0.072436   -0.084967
  C      0.678490   -0.599133    1.143676
  C      2.164242   -0.457549    1.532873
  O      2.252134   -1.875487    1.835216
  C      0.893851   -2.103662    1.422663
  C     -0.139155   -1.921760    2.552633
  C      0.246416   -2.277512    3.970363
  O     -0.180231   -0.482647    2.304637
  H      0.953364    2.061642    0.276875
  H     -0.464061    2.054339   -0.779564
  H     -0.657221    1.806677    0.965617
  H     -0.859587   -0.364788   -0.309697
  H      0.773262   -0.147861   -0.938449
  H      2.841698   -0.189415    0.711577
  H      2.358934    0.174063    2.405356
  H      0.793217   -2.936609    0.723693
  H     -1.110102   -2.363515    2.284603
  H      1.267454   -1.952314    4.181011
  H     -0.436341   -1.795963    4.676842
  H      0.186284   -3.360848    4.120644

 Total Charge           Charge          ....    0
 Multiplicity           Mult            ....    1
 Number of Electrons    NEL             ....   70
 Basis Dimension        Dim             ....  351

ORBITAL ENERGIES
----------------

  NO   OCC          E(Eh)            E(eV)
   0   2.0000     -20.554333      -559.3118
   1   2.0000     -20.548488      -559.1528
   2   2.0000     -11.290094      -307.2191
   3   2.0000     -11.284878      -307.0772
   4   2.0000     -11.284296      -307.0613
   5   2.0000     -11.279114      -306.9203
   6   2.0000     -11.231505      -305.6248
   7   2.0000     -11.218536      -305.2719
   8   2.0000     -11.213291      -305.1292
   9   2.0000      -1.411567       -38.4107
  10   2.0000      -1.346773       -36.6476
  11   2.0000      -1.066665       -29.0254
  12   2.0000      -1.020754       -27.7761
  13   2.0000      -0.968602       -26.3570
  14   2.0000      -0.940865       -25.6022
  15   2.0000      -0.866247       -23.5718
  16   2.0000      -0.812372       -22.1058
  17   2.0000      -0.721755       -19.6399
  18   2.0000      -0.691111       -18.8061
  19   2.0000      -0.680528       -18.5181
  20   2.0000      -0.651497       -17.7281
  21   2.0000      -0.615823       -16.7574
  22   2.0000      -0.596780       -16.2392
  23   2.0000      -0.580601       -15.7990
  24   2.0000      -0.562823       -15.3152
  25   2.0000      -0.556507       -15.1433
  26   2.0000      -0.542217       -14.7545
  27   2.0000      -0.525696       -14.3049
  28   2.0000      -0.514713       -14.0061
  29   2.0000      -0.503404       -13.6983
  30   2.0000      -0.495050       -13.4710
  31   2.0000      -0.473206       -12.8766
  32   2.0000      -0.428746       -11.6668
  33   2.0000      -0.418825       -11.3968
  34   2.0000      -0.396826       -10.7982
  35   0.0000       0.133670         3.6374
  36   0.0000       0.147380         4.0104
  37   0.0000       0.159638         4.3440
  38   0.0000       0.172631         4.6975
  39   0.0000       0.194522         5.2932

MULLIKEN ATOMIC CHARGES
-----------------------
   0 C :   -0.413169
   1 C :   -0.205542
   2 C :    0.109926
   3 C :   -0.043901
   4 O :   -0.347804
   5 C :    0.117222
   6 C :    0.072481
   7 C :   -0.415934
   8 O :   -0.339130
   9 H :    0.122723
  10 H :    0.136600
  11 H :    0.152372
  12 H :    0.112485
  13 H :    0.115154
  14 H :    0.099963
  15 H :    0.110069
  16 H :    0.118887
  17 H :    0.084382
  18 H :    0.148579
  19 H :    0.138541
  20 H :    0.126098
Sum of atomic charges:    0.0000000

LOEWDIN ATOMIC CHARGES
----------------------
   0 C :   -0.307990
   1 C :   -0.256770
   2 C :   -0.297521
   3 C :   -0.221198
   4 O :    0.138656
   5 C :   -0.215306
   6 C :   -0.279646
   7 C :   -0.294171
   8 O :    0.172341
   9 H :    0.121619
  10 H :    0.121913
  11 H :    0.129083
  12 H :    0.144425
  13 H :    0.143903
  14 H :    0.121693
  15 H :    0.123541
  16 H :    0.128904
  17 H :    0.137428
  18 H :    0.130424
  19 H :    0.129505
  20 H :    0.129167

  Mayer bond orders larger than 0.1
B(  0-C ,  1-C ) :   0.9241 B(  0-C ,  9-H ) :   0.9349 B(  0-C , 10-H ) :   0.9384
B(  0-C , 11-H ) :   0.9360 B(  1-C ,  2-C ) :   0.9236 B(  1-C , 12-H ) :   0.9258
B(  1-C , 13-H ) :   0.9252 B(  2-C ,  3-C ) :   0.9621 B(  2-C ,  5-C ) :   0.9511
B(  2-C ,  8-O ) :   0.9369 B(  3-C ,  4-O ) :   0.9259 B(  3-C , 14-H ) :   0.9070
B(  3-C , 15-H ) :   0.9081 B(  4-O ,  5-C ) :   0.9561 B(  5-C ,  6-C ) :   0.9248
B(  5-C , 16-H ) :   0.9037 B(  6-C ,  7-C ) :   0.9194 B(  6-C ,  8-O ) :   0.9121
B(  6-C , 17-H ) :   0.9083 B(  7-C , 18-H ) :   0.9340 B(  7-C , 19-H ) :   0.9332
B(  7-C , 20-H ) :   0.9263

MP2 TOTAL ENERGY:     -423.487123580 Eh
FINAL SINGLE POINT ENERGY      -423.487123579518

DIPOLE MOMENT
-------------
                                X             Y             Z
Electronic contribution:      2.01745      -3.39631       0.94314
Nuclear contribution   :     -2.26454       3.35718      -1.46864
                        -----------------------------------------
Total Dipole Moment    :     -0.24709      -0.03913      -0.52550
                        -----------------------------------------
Magnitude (a.u.)       :      0.58201
Magnitude (Debye)      :      1.47936

                             ****ORCA TERMINATED NORMALLY****
TOTAL RUN TIME: 0 days 0 hours 17 minutes 53 seconds 733 msec
