                         Program Version 3.0.3 - RELEASE   -
|  1> ! RI-MP2 RIJK def2-TZVP def2-TZVP/C def2-TZVP/JK TIGHTSCF
|  2> % maxcore 2000
|  3> % mp2 density relaxed end
|  4> *xyz 0 1
|  5>  C        0.0179803525     1.5331061167    -0.0862076246
|  6>  N        1.3678833159     2.0518034227     0.1960545599
|  7>  C        2.3645485926     1.2766512370     0.2982923511
|  8>  N        2.3676838827    -0.1200207030     0.1594640606
|  9>  C        1.1200210733    -0.6824601621     0.0781425497
| 10>  C       -0.0311521449     0.0296605380    -0.0423367170
| 11>  C       -1.0039225005    -1.0011240204    -0.0786452012
| 12>  N       -0.4866187477    -2.2062725052     0.0077886076
| 13>  O        0.9167711925    -1.9939362224     0.1102437506
| 14>  H       -0.6696880550     1.9869646613     0.6392176332
| 15>  H       -0.2888834934     1.9277798494    -1.0657170398
| 16>  H        3.3511817469     1.6908246130     0.5000424403
| 17>  H        3.1547959698    -0.6623392128     0.4776748404
| 18>  H       -2.0789763348    -0.9168180023    -0.1656923708
| 19> *
| 20>
| 21>                          ****END OF INPUT****

CARTESIAN COORDINATES (ANGSTROEM)
---------------------------------
  C      0.017980    1.533106   -0.086208
  N      1.367883    2.051803    0.196055
  C      2.364549    1.276651    0.298292
  N      2.367684   -0.120021    0.159464
  C      1.120021   -0.682460    0.078143
  C     -0.031152    0.029661   -0.042337
  C     -1.003923   -1.001124   -0.078645
  N     -0.486619   -2.206273    0.007789
  O      0.916771   -1.993936    0.110244
  H     -0.669688    1.986965    0.639218
  H     -0.288883    1.927780   -1.065717
  H      3.351182    1.690825    0.500042
  H      3.154796   -0.662339    0.477675
  H     -2.078976   -0.916818   -0.165692

 Total Charge           Charge          ....    0
 Multiplicity           Mult            ....    1
 Number of Electrons    NEL             ....   64
 Basis Dimension        Dim             ....  309

ORBITAL ENERGIES
----------------

  NO   OCC          E(Eh)            E(eV)
   0   2.0000     -20.647401      -561.8443
   1   2.0000     -15.624491      -425.1640
   2   2.0000     -15.618183      -424.9924
   3   2.0000     -15.562690      -423.4823
   4   2.0000     -11.356506      -309.0262
   5   2.0000     -11.334743      -308.4340
   6   2.0000     -11.288843      -307.1850
   7   2.0000     -11.277419      -306.8742
   8   2.0000     -11.231180      -305.6159
   9   2.0000      -1.497126       -40.7389
  10   2.0000      -1.319897       -35.9162
  11   2.0000      -1.210689       -32.9445
  12   2.0000      -1.162809       -31.6416
  13   2.0000      -1.084128       -29.5006
  14   2.0000      -0.952134       -25.9089
  15   2.0000      -0.877839       -23.8872
  16   2.0000      -0.847522       -23.0623
  17   2.0000      -0.767249       -20.8779
  18   2.0000      -0.749089       -20.3837
  19   2.0000      -0.700710       -19.0673
  20   2.0000      -0.681762       -18.5517
  21   2.0000      -0.636883       -17.3305
  22   2.0000      -0.625589       -17.0231
  23   2.0000      -0.613455       -16.6930
  24   2.0000      -0.581476       -15.8228
  25   2.0000      -0.556815       -15.1517
  26   2.0000      -0.538094       -14.6423
  27   2.0000      -0.486569       -13.2402
  28   2.0000      -0.434748       -11.8301
  29   2.0000      -0.425883       -11.5889
  30   2.0000      -0.419364       -11.4115
  31   2.0000      -0.320148        -8.7117
  32   0.0000       0.115788         3.1507
  33   0.0000       0.123358         3.3567
  34   0.0000       0.149472         4.0673
  35   0.0000       0.167292         4.5522
  36   0.0000       0.176238         4.7957

MULLIKEN ATOMIC CHARGES
-----------------------
   0 C :   -0.092888
   1 N :   -0.259589
   2 C :    0.064552
   3 N :   -0.332049
   4 C :    0.250650
   5 C :   -0.103050
   6 C :   -0.109619
   7 N :   -0.116310
   8 O :   -0.121515
   9 H :    0.136896
  10 H :    0.133392
  11 H :    0.143193
  12 H :    0.258418
  13 H :    0.147919
Sum of atomic charges:   -0.0000000

LOEWDIN ATOMIC CHARGES
----------------------
   0 C :   -0.242713
   1 N :    0.086419
   2 C :   -0.292477
   3 N :    0.127803
   4 C :   -0.336752
   5 C :   -0.179792
   6 C :   -0.247446
   7 N :    0.037772
   8 O :    0.284750
   9 H :    0.140536
  10 H :    0.140098
  11 H :    0.138589
  12 H :    0.198305
  13 H :    0.144907

  Mayer bond orders larger than 0.1
B(  0-C ,  1-N ) :   0.9205 B(  0-C ,  5-C ) :   0.8926 B(  0-C ,  9-H ) :   0.9329
B(  0-C , 10-H ) :   0.9151 B(  1-N ,  2-C ) :   1.8654 B(  2-C ,  3-N ) :   0.9998
B(  2-C , 11-H ) :   0.9196 B(  3-N ,  4-C ) :   1.0555 B(  3-N , 12-H ) :   0.8573
B(  4-C ,  5-C ) :   1.4708 B(  4-C ,  7-N ) :   0.1061 B(  4-C ,  8-O ) :   1.1801
B(  5-C ,  6-C ) :   1.1971 B(  6-C ,  7-N ) :   1.6162 B(  6-C , 13-H ) :   0.9305
B(  7-N ,  8-O ) :   0.8448

MP2 TOTAL ENERGY:     -432.134897456 Eh
FINAL SINGLE POINT ENERGY      -432.134897456159

DIPOLE MOMENT
-------------
                                X             Y             Z
Electronic contribution:      0.87860      -4.01970       0.12035
Nuclear contribution   :     -0.29349       4.42939       0.00961
                        -----------------------------------------
Total Dipole Moment    :      0.58511       0.40969       0.12996
                        -----------------------------------------
Magnitude (a.u.)       :      0.72601
Magnitude (Debye)      :      1.84538

                             ****ORCA TERMINATED NORMALLY****
TOTAL RUN TIME: 0 days 0 hours 15 minutes 29 seconds 614 msec
