                         Program Version 3.0.3 - RELEASE   -
|  1> ! RI-MP2 RIJK def2-TZVP def2-TZVP/C def2-TZVP/JK TIGHTSCF
|  2> % maxcore 2000
|  3> % mp2 density relaxed end
|  4> *xyz 0 1
|  5>  C       -0.0446465185     1.5456932611    -0.0221357091
|  6>  N        0.0298591396     0.0980177209     0.1159217441
|  7>  C       -0.9486518814    -0.5811627194     0.9152285548
|  8>  C        0.0408802708    -1.5597936680     1.4504855995
|  9>  C        1.1416658934    -0.5901228537     0.9148377166
| 10>  C        1.5030807969     0.2670532615     2.1001794390
| 11>  C        0.4524145653     0.2900621789     2.9363822574
| 12>  C       -0.5956365743    -0.6516915938     2.4758776189
| 13>  C       -1.6781587815    -1.1609282189     3.3938213722
| 14>  H        0.8299664384     1.9062854774    -0.5737542382
| 15>  H       -0.9356375986     1.7824340291    -0.6145907767
| 16>  H       -0.1105079206     2.0926320472     0.9299072475
| 17>  H       -1.9810385238    -0.6864325716     0.5965316944
| 18>  H        0.0456610771    -2.6428461752     1.4619909390
| 19>  H        1.9471201174    -0.9574601327     0.2786796644
| 20>  H        2.3697085842     0.9154520330     2.1387821160
| 21>  H        0.3304133538     0.9377949642     3.7975295486
| 22>  H       -2.2771351987    -0.3386601118     3.8009137796
| 23>  H       -2.3611041245    -1.8336381963     2.8636577431
| 24>  H       -1.2585684550    -1.7185105819     4.2395354288
| 25> *
| 26>
| 27>                          ****END OF INPUT****

CARTESIAN COORDINATES (ANGSTROEM)
---------------------------------
  C     -0.044647    1.545693   -0.022136
  N      0.029859    0.098018    0.115922
  C     -0.948652   -0.581163    0.915229
  C      0.040880   -1.559794    1.450486
  C      1.141666   -0.590123    0.914838
  C      1.503081    0.267053    2.100179
  C      0.452415    0.290062    2.936382
  C     -0.595637   -0.651692    2.475878
  C     -1.678159   -1.160928    3.393821
  H      0.829966    1.906285   -0.573754
  H     -0.935638    1.782434   -0.614591
  H     -0.110508    2.092632    0.929907
  H     -1.981039   -0.686433    0.596532
  H      0.045661   -2.642846    1.461991
  H      1.947120   -0.957460    0.278680
  H      2.369709    0.915452    2.138782
  H      0.330413    0.937795    3.797530
  H     -2.277135   -0.338660    3.800914
  H     -2.361104   -1.833638    2.863658
  H     -1.258568   -1.718511    4.239535

 Total Charge           Charge          ....    0
 Multiplicity           Mult            ....    1
 Number of Electrons    NEL             ....   66
 Basis Dimension        Dim             ....  345

ORBITAL ENERGIES
----------------

  NO   OCC          E(Eh)            E(eV)
   0   2.0000     -15.547803      -423.0772
   1   2.0000     -11.263710      -306.5011
   2   2.0000     -11.259788      -306.3944
   3   2.0000     -11.237934      -305.7997
   4   2.0000     -11.233249      -305.6723
   5   2.0000     -11.229287      -305.5644
   6   2.0000     -11.226464      -305.4876
   7   2.0000     -11.221565      -305.3543
   8   2.0000     -11.216055      -305.2044
   9   2.0000      -1.277417       -34.7603
  10   2.0000      -1.115732       -30.3606
  11   2.0000      -1.036312       -28.1995
  12   2.0000      -0.991605       -26.9829
  13   2.0000      -0.914744       -24.8915
  14   2.0000      -0.875655       -23.8278
  15   2.0000      -0.797823       -21.7099
  16   2.0000      -0.742717       -20.2104
  17   2.0000      -0.707248       -19.2452
  18   2.0000      -0.685088       -18.6422
  19   2.0000      -0.647735       -17.6258
  20   2.0000      -0.608376       -16.5548
  21   2.0000      -0.591267       -16.0892
  22   2.0000      -0.570830       -15.5331
  23   2.0000      -0.566485       -15.4149
  24   2.0000      -0.548752       -14.9323
  25   2.0000      -0.525045       -14.2872
  26   2.0000      -0.506899       -13.7934
  27   2.0000      -0.487765       -13.2728
  28   2.0000      -0.465752       -12.6738
  29   2.0000      -0.444941       -12.1075
  30   2.0000      -0.405231       -11.0269
  31   2.0000      -0.347865        -9.4659
  32   2.0000      -0.313443        -8.5292
  33   0.0000       0.136137         3.7045
  34   0.0000       0.141794         3.8584
  35   0.0000       0.157279         4.2798
  36   0.0000       0.174185         4.7398
  37   0.0000       0.180049         4.8994

MULLIKEN ATOMIC CHARGES
-----------------------
   0 C :   -0.311975
   1 N :   -0.132268
   2 C :   -0.143007
   3 C :   -0.157880
   4 C :    0.009995
   5 C :   -0.202893
   6 C :   -0.207735
   7 C :    0.154362
   8 C :   -0.453971
   9 H :    0.131600
  10 H :    0.135733
  11 H :    0.113746
  12 H :    0.129915
  13 H :    0.146944
  14 H :    0.128382
  15 H :    0.127328
  16 H :    0.122194
  17 H :    0.137753
  18 H :    0.134397
  19 H :    0.137381
Sum of atomic charges:   -0.0000000

LOEWDIN ATOMIC CHARGES
----------------------
   0 C :   -0.330145
   1 N :    0.128863
   2 C :   -0.188349
   3 C :   -0.109791
   4 C :   -0.167077
   5 C :   -0.152626
   6 C :   -0.119809
   7 C :   -0.211965
   8 C :   -0.267708
   9 H :    0.117969
  10 H :    0.119635
  11 H :    0.106472
  12 H :    0.136560
  13 H :    0.137864
  14 H :    0.136755
  15 H :    0.135012
  16 H :    0.140455
  17 H :    0.128674
  18 H :    0.131213
  19 H :    0.127998

  Mayer bond orders larger than 0.1
B(  0-C ,  1-N ) :   0.8917 B(  0-C ,  9-H ) :   0.9394 B(  0-C , 10-H ) :   0.9343
B(  0-C , 11-H ) :   0.9182 B(  1-N ,  2-C ) :   1.0584 B(  1-N ,  4-C ) :   0.9314
B(  2-C ,  3-C ) :   0.8660 B(  2-C ,  7-C ) :   0.7856 B(  2-C , 12-H ) :   0.9145
B(  3-C ,  4-C ) :   0.9060 B(  3-C ,  7-C ) :   0.8519 B(  3-C , 13-H ) :   0.8929
B(  4-C ,  5-C ) :   0.9677 B(  4-C , 14-H ) :   0.9190 B(  5-C ,  6-C ) :   1.7237
B(  5-C , 15-H ) :   0.9306 B(  6-C ,  7-C ) :   0.9668 B(  6-C , 16-H ) :   0.9355
B(  7-C ,  8-C ) :   0.8705 B(  8-C , 17-H ) :   0.9424 B(  8-C , 18-H ) :   0.9415
B(  8-C , 19-H ) :   0.9363

MP2 TOTAL ENERGY:     -365.302043355 Eh
FINAL SINGLE POINT ENERGY      -365.302043355137

DIPOLE MOMENT
-------------
                                X             Y             Z
Electronic contribution:      2.64814      -1.84183      -1.27961
Nuclear contribution   :     -2.80214       1.91882       1.49075
                        -----------------------------------------
Total Dipole Moment    :     -0.15400       0.07699       0.21114
                        -----------------------------------------
Magnitude (a.u.)       :      0.27244
Magnitude (Debye)      :      0.69249

                             ****ORCA TERMINATED NORMALLY****
TOTAL RUN TIME: 0 days 0 hours 21 minutes 18 seconds 815 msec
