                         Program Version 3.0.3 - RELEASE   -
|  1> ! RI-MP2 RIJK def2-TZVP def2-TZVP/C def2-TZVP/JK TIGHTSCF
|  2> % maxcore 2000
|  3> % mp2 density relaxed end
|  4> *xyz 0 1
|  5>  C        0.2139491198     1.4073410307    -0.1174042701
|  6>  C       -0.0747790182    -0.0693615722     0.0632824044
|  7>  C       -1.5270772061    -0.4485485404    -0.1493892320
|  8>  O        0.7947384323    -0.8719173651    -0.8557928882
|  9>  C        1.5091108270    -1.3885114983     0.1795506766
| 10>  O        2.4920548942    -2.0618105407     0.1467255809
| 11>  C        0.6398201091    -0.7481288170     1.2661691467
| 12>  O        1.2901008204     0.1014572689     2.1725113691
| 13>  H        1.2710184379     1.6223417401     0.0459313312
| 14>  H       -0.0637611680     1.7219563640    -1.1275092959
| 15>  H       -0.3655378085     1.9932050711     0.6020548259
| 16>  H       -1.8571699152    -0.1580404024    -1.1509739900
| 17>  H       -1.6714911158    -1.5272257074    -0.0407274750
| 18>  H       -2.1607735625     0.0622823174     0.5824081163
| 19>  H       -0.0015141560    -1.4806801678     1.7764418436
| 20>  H        2.1118571196    -0.3271714508     2.4382340166
| 21> *
| 22>
| 23>                          ****END OF INPUT****

CARTESIAN COORDINATES (ANGSTROEM)
---------------------------------
  C      0.213949    1.407341   -0.117404
  C     -0.074779   -0.069362    0.063282
  C     -1.527077   -0.448549   -0.149389
  O      0.794738   -0.871917   -0.855793
  C      1.509111   -1.388511    0.179551
  O      2.492055   -2.061811    0.146726
  C      0.639820   -0.748129    1.266169
  O      1.290101    0.101457    2.172511
  H      1.271018    1.622342    0.045931
  H     -0.063761    1.721956   -1.127509
  H     -0.365538    1.993205    0.602055
  H     -1.857170   -0.158040   -1.150974
  H     -1.671491   -1.527226   -0.040727
  H     -2.160774    0.062282    0.582408
  H     -0.001514   -1.480680    1.776442
  H      2.111857   -0.327171    2.438234

 Total Charge           Charge          ....    0
 Multiplicity           Mult            ....    1
 Number of Electrons    NEL             ....   62
 Basis Dimension        Dim             ....  296

ORBITAL ENERGIES
----------------

  NO   OCC          E(Eh)            E(eV)
   0   2.0000     -20.603259      -560.6432
   1   2.0000     -20.591854      -560.3328
   2   2.0000     -20.559261      -559.4459
   3   2.0000     -11.386171      -309.8335
   4   2.0000     -11.323716      -308.1340
   5   2.0000     -11.319696      -308.0246
   6   2.0000     -11.241354      -305.8928
   7   2.0000     -11.233894      -305.6898
   8   2.0000      -1.470458       -40.0132
   9   2.0000      -1.397140       -38.0181
  10   2.0000      -1.382989       -37.6331
  11   2.0000      -1.087701       -29.5979
  12   2.0000      -0.996187       -27.1076
  13   2.0000      -0.966035       -26.2871
  14   2.0000      -0.821928       -22.3658
  15   2.0000      -0.776141       -21.1199
  16   2.0000      -0.731995       -19.9186
  17   2.0000      -0.701485       -19.0884
  18   2.0000      -0.684219       -18.6186
  19   2.0000      -0.644609       -17.5407
  20   2.0000      -0.620509       -16.8849
  21   2.0000      -0.609531       -16.5862
  22   2.0000      -0.586104       -15.9487
  23   2.0000      -0.568896       -15.4805
  24   2.0000      -0.557797       -15.1784
  25   2.0000      -0.546381       -14.8678
  26   2.0000      -0.526786       -14.3346
  27   2.0000      -0.516075       -14.0431
  28   2.0000      -0.474365       -12.9081
  29   2.0000      -0.460251       -12.5241
  30   2.0000      -0.436358       -11.8739
  31   0.0000       0.118466         3.2236
  32   0.0000       0.141655         3.8546
  33   0.0000       0.162005         4.4084
  34   0.0000       0.167482         4.5574
  35   0.0000       0.186552         5.0763

MULLIKEN ATOMIC CHARGES
-----------------------
   0 C :   -0.379881
   1 C :    0.219243
   2 C :   -0.392134
   3 O :   -0.238320
   4 C :    0.208140
   5 O :   -0.268790
   6 C :    0.002005
   7 O :   -0.467673
   8 H :    0.148383
   9 H :    0.143206
  10 H :    0.136923
  11 H :    0.146999
  12 H :    0.138876
  13 H :    0.142254
  14 H :    0.120146
  15 H :    0.340624
Sum of atomic charges:   -0.0000000

LOEWDIN ATOMIC CHARGES
----------------------
   0 C :   -0.261060
   1 C :   -0.303655
   2 C :   -0.265475
   3 O :    0.272414
   4 C :   -0.465214
   5 O :    0.146730
   6 C :   -0.271052
   7 O :    0.003419
   8 H :    0.135148
   9 H :    0.133615
  10 H :    0.136947
  11 H :    0.134752
  12 H :    0.131815
  13 H :    0.135670
  14 H :    0.144721
  15 H :    0.191225

  Mayer bond orders larger than 0.1
B(  0-C ,  1-C ) :   0.9472 B(  0-C ,  8-H ) :   0.9199 B(  0-C ,  9-H ) :   0.9306
B(  0-C , 10-H ) :   0.9238 B(  1-C ,  2-C ) :   0.9337 B(  1-C ,  3-O ) :   0.8508
B(  1-C ,  6-C ) :   0.8177 B(  2-C , 11-H ) :   0.9366 B(  2-C , 12-H ) :   0.9243
B(  2-C , 13-H ) :   0.9269 B(  3-O ,  4-C ) :   1.1312 B(  4-C ,  5-O ) :   2.0528
B(  4-C ,  6-C ) :   0.9420 B(  6-C ,  7-O ) :   1.0223 B(  6-C , 14-H ) :   0.9311
B(  7-O , 15-H ) :   0.8268

MP2 TOTAL ENERGY:     -420.247018382 Eh
FINAL SINGLE POINT ENERGY      -420.247018381583

DIPOLE MOMENT
-------------
                                X             Y             Z
Electronic contribution:      6.69628      -5.02759       0.25056
Nuclear contribution   :     -7.67645       5.54220       0.25695
                        -----------------------------------------
Total Dipole Moment    :     -0.98017       0.51460       0.50751
                        -----------------------------------------
Magnitude (a.u.)       :      1.21783
Magnitude (Debye)      :      3.09548

                             ****ORCA TERMINATED NORMALLY****
TOTAL RUN TIME: 0 days 0 hours 12 minutes 37 seconds 788 msec
