                         Program Version 3.0.3 - RELEASE   -
|  1> ! RI-MP2 RIJK def2-TZVP def2-TZVP/C def2-TZVP/JK TIGHTSCF
|  2> % maxcore 2000
|  3> % mp2 density relaxed end
|  4> *xyz 0 1
|  5>  N        0.0949852728     1.3197540684     0.1300089881
|  6>  C       -0.0294726284    -0.0415382183     0.0370212623
|  7>  C       -1.1314150751    -0.8155716773     0.0224294788
|  8>  C       -0.7656335622    -2.2332188778    -0.0044266680
|  9>  N       -1.4745901280    -3.2892643870    -0.0249776883
| 10>  N        0.6612871256    -2.2564012975    -0.0100025645
| 11>  C        1.2058377399    -0.9036915272     0.0258183281
| 12>  C        1.5057579307    -3.3468592770    -0.0437879212
| 13>  O        1.1999909281    -4.5092793769    -0.0754365280
| 14>  H        0.9433491699     1.7313897234    -0.2272499750
| 15>  H       -0.7287908113     1.8672910005    -0.0661725521
| 16>  H       -2.1600540803    -0.4826755002     0.0305255773
| 17>  H       -2.4616392095    -3.0318594980    -0.0146337995
| 18>  H        1.8358271704    -0.6939516326    -0.8509018657
| 19>  H        1.8179113753    -0.7295051241     0.9212935775
| 20>  H        2.5643415121    -3.0045625784    -0.0384517499
| 21> *
| 22>
| 23>                          ****END OF INPUT****

CARTESIAN COORDINATES (ANGSTROEM)
---------------------------------
  N      0.094985    1.319754    0.130009
  C     -0.029473   -0.041538    0.037021
  C     -1.131415   -0.815572    0.022429
  C     -0.765634   -2.233219   -0.004427
  N     -1.474590   -3.289264   -0.024978
  N      0.661287   -2.256401   -0.010003
  C      1.205838   -0.903692    0.025818
  C      1.505758   -3.346859   -0.043788
  O      1.199991   -4.509279   -0.075437
  H      0.943349    1.731390   -0.227250
  H     -0.728791    1.867291   -0.066173
  H     -2.160054   -0.482676    0.030526
  H     -2.461639   -3.031859   -0.014634
  H      1.835827   -0.693952   -0.850902
  H      1.817911   -0.729505    0.921294
  H      2.564342   -3.004563   -0.038452

 Total Charge           Charge          ....    0
 Multiplicity           Mult            ....    1
 Number of Electrons    NEL             ....   66
 Basis Dimension        Dim             ....  321

ORBITAL ENERGIES
----------------

  NO   OCC          E(Eh)            E(eV)
   0   2.0000     -20.526138      -558.5446
   1   2.0000     -15.605243      -424.6403
   2   2.0000     -15.602493      -424.5654
   3   2.0000     -15.519055      -422.2950
   4   2.0000     -11.350912      -308.8740
   5   2.0000     -11.319543      -308.0204
   6   2.0000     -11.318786      -307.9998
   7   2.0000     -11.303902      -307.5948
   8   2.0000     -11.233809      -305.6875
   9   2.0000      -1.387310       -37.7506
  10   2.0000      -1.303375       -35.4666
  11   2.0000      -1.252714       -34.0881
  12   2.0000      -1.175564       -31.9887
  13   2.0000      -1.072884       -29.1947
  14   2.0000      -0.975140       -26.5349
  15   2.0000      -0.888693       -24.1826
  16   2.0000      -0.811991       -22.0954
  17   2.0000      -0.751914       -20.4606
  18   2.0000      -0.716327       -19.4922
  19   2.0000      -0.708229       -19.2719
  20   2.0000      -0.679077       -18.4786
  21   2.0000      -0.671327       -18.2677
  22   2.0000      -0.636491       -17.3198
  23   2.0000      -0.612948       -16.6792
  24   2.0000      -0.581481       -15.8229
  25   2.0000      -0.561240       -15.2721
  26   2.0000      -0.551133       -14.9971
  27   2.0000      -0.526178       -14.3180
  28   2.0000      -0.487214       -13.2578
  29   2.0000      -0.449251       -12.2248
  30   2.0000      -0.400132       -10.8881
  31   2.0000      -0.377905       -10.2833
  32   2.0000      -0.331541        -9.0217
  33   0.0000       0.101337         2.7575
  34   0.0000       0.122962         3.3460
  35   0.0000       0.137695         3.7469
  36   0.0000       0.144298         3.9265
  37   0.0000       0.150832         4.1043

MULLIKEN ATOMIC CHARGES
-----------------------
   0 N :   -0.509397
   1 C :    0.115887
   2 C :   -0.215437
   3 C :    0.047754
   4 N :   -0.320399
   5 N :   -0.033020
   6 C :   -0.158665
   7 C :    0.119803
   8 O :   -0.272002
   9 H :    0.258883
  10 H :    0.260351
  11 H :    0.137643
  12 H :    0.210067
  13 H :    0.136464
  14 H :    0.147753
  15 H :    0.074315
Sum of atomic charges:   -0.0000000

LOEWDIN ATOMIC CHARGES
----------------------
   0 N :   -0.036158
   1 C :   -0.253281
   2 C :   -0.145788
   3 C :   -0.323844
   4 N :   -0.045332
   5 N :    0.215911
   6 C :   -0.197662
   7 C :   -0.392789
   8 O :    0.119769
   9 H :    0.174422
  10 H :    0.176411
  11 H :    0.143516
  12 H :    0.164628
  13 H :    0.142293
  14 H :    0.145677
  15 H :    0.112226

  Mayer bond orders larger than 0.1
B(  0-N ,  1-C ) :   1.0813 B(  0-N ,  9-H ) :   0.8693 B(  0-N , 10-H ) :   0.8756
B(  1-C ,  2-C ) :   1.6113 B(  1-C ,  6-C ) :   0.9763 B(  2-C ,  3-C ) :   1.0417
B(  2-C , 11-H ) :   0.9032 B(  3-C ,  4-N ) :   1.9941 B(  3-C ,  5-N ) :   0.9921
B(  4-N , 12-H ) :   0.8545 B(  5-N ,  6-C ) :   0.9225 B(  5-N ,  7-C ) :   1.0136
B(  6-C , 13-H ) :   0.8961 B(  6-C , 14-H ) :   0.9066 B(  7-C ,  8-O ) :   1.9984
B(  7-C , 15-H ) :   0.9296

MP2 TOTAL ENERGY:     -433.377817818 Eh
FINAL SINGLE POINT ENERGY      -433.377817818465

DIPOLE MOMENT
-------------
                                X             Y             Z
Electronic contribution:     -0.36069      -4.47652       0.00339
Nuclear contribution   :      0.63744       7.64093      -0.24796
                        -----------------------------------------
Total Dipole Moment    :      0.27675       3.16441      -0.24458
                        -----------------------------------------
Magnitude (a.u.)       :      3.18589
Magnitude (Debye)      :      8.09789

                             ****ORCA TERMINATED NORMALLY****
TOTAL RUN TIME: 0 days 0 hours 15 minutes 19 seconds 133 msec
