                         Program Version 3.0.3 - RELEASE   -
|  1> ! RI-MP2 RIJK def2-TZVP def2-TZVP/C def2-TZVP/JK TIGHTSCF
|  2> % maxcore 2000
|  3> % mp2 density relaxed end
|  4> *xyz 0 1
|  5>  C        0.0471515050     1.3431724141    -0.1392833850
|  6>  O       -0.0062183132    -0.0381505804     0.1528737384
|  7>  C       -1.2796660527    -0.5828527526     0.0845219469
|  8>  C       -2.1640354667    -0.5920025430    -1.2175141515
|  9>  C       -2.8741988145    -1.7506434422    -0.4260636858
| 10>  C       -3.7928848120    -2.7469632498    -1.0934049358
| 11>  C       -1.4319644803    -2.1302148707     0.0814463405
| 12>  C       -3.3800946006    -0.9635782307     0.7997678852
| 13>  C       -2.3437461980    -0.1957940429     1.1372910912
| 14>  H        1.0890416812     1.6535799236    -0.0331724740
| 15>  H       -0.2850844282     1.5535041953    -1.1662265719
| 16>  H       -0.5715844224     1.9355369485     0.5503440207
| 17>  H       -2.7592263374     0.2955386073    -1.4441499877
| 18>  H       -1.6201964699    -0.9454605314    -2.0999389069
| 19>  H       -3.3014584729    -3.2370323192    -1.9398996036
| 20>  H       -4.1049028260    -3.5281885453    -0.3908984865
| 21>  H       -4.6985110334    -2.2582355992    -1.4704282669
| 22>  H       -0.8185883823    -2.6156282746    -0.6847191740
| 23>  H       -1.3516874719    -2.6454525890     1.0409739879
| 24>  H       -4.3571814014    -1.0620361244     1.2539766443
| 25>  H       -2.2168057426     0.5077040367     1.9478810445
| 26> *
| 27>
| 28>                          ****END OF INPUT****

CARTESIAN COORDINATES (ANGSTROEM)
---------------------------------
  C      0.047152    1.343172   -0.139283
  O     -0.006218   -0.038151    0.152874
  C     -1.279666   -0.582853    0.084522
  C     -2.164035   -0.592003   -1.217514
  C     -2.874199   -1.750643   -0.426064
  C     -3.792885   -2.746963   -1.093405
  C     -1.431964   -2.130215    0.081446
  C     -3.380095   -0.963578    0.799768
  C     -2.343746   -0.195794    1.137291
  H      1.089042    1.653580   -0.033172
  H     -0.285084    1.553504   -1.166227
  H     -0.571584    1.935537    0.550344
  H     -2.759226    0.295539   -1.444150
  H     -1.620196   -0.945461   -2.099939
  H     -3.301458   -3.237032   -1.939900
  H     -4.104903   -3.528189   -0.390898
  H     -4.698511   -2.258236   -1.470428
  H     -0.818588   -2.615628   -0.684719
  H     -1.351687   -2.645453    1.040974
  H     -4.357181   -1.062036    1.253977
  H     -2.216806    0.507704    1.947881

 Total Charge           Charge          ....    0
 Multiplicity           Mult            ....    1
 Number of Electrons    NEL             ....   68
 Basis Dimension        Dim             ....  351

ORBITAL ENERGIES
----------------

  NO   OCC          E(Eh)            E(eV)
   0   2.0000     -20.556834      -559.3799
   1   2.0000     -11.290319      -307.2252
   2   2.0000     -11.270746      -306.6926
   3   2.0000     -11.244966      -305.9911
   4   2.0000     -11.223473      -305.4062
   5   2.0000     -11.223062      -305.3950
   6   2.0000     -11.221222      -305.3450
   7   2.0000     -11.220627      -305.3288
   8   2.0000     -11.216800      -305.2246
   9   2.0000      -1.382101       -37.6089
  10   2.0000      -1.190280       -32.3892
  11   2.0000      -1.002272       -27.2732
  12   2.0000      -0.985506       -26.8170
  13   2.0000      -0.934451       -25.4277
  14   2.0000      -0.897571       -24.4242
  15   2.0000      -0.841037       -22.8858
  16   2.0000      -0.743866       -20.2416
  17   2.0000      -0.720739       -19.6123
  18   2.0000      -0.676707       -18.4141
  19   2.0000      -0.649416       -17.6715
  20   2.0000      -0.630050       -17.1445
  21   2.0000      -0.613825       -16.7030
  22   2.0000      -0.589102       -16.0303
  23   2.0000      -0.578019       -15.7287
  24   2.0000      -0.553494       -15.0613
  25   2.0000      -0.551984       -15.0203
  26   2.0000      -0.530216       -14.4279
  27   2.0000      -0.500104       -13.6085
  28   2.0000      -0.475459       -12.9379
  29   2.0000      -0.462096       -12.5743
  30   2.0000      -0.452584       -12.3154
  31   2.0000      -0.434252       -11.8166
  32   2.0000      -0.394490       -10.7346
  33   2.0000      -0.332433        -9.0460
  34   0.0000       0.138482         3.7683
  35   0.0000       0.142662         3.8820
  36   0.0000       0.151167         4.1135
  37   0.0000       0.178792         4.8652
  38   0.0000       0.182391         4.9631

MULLIKEN ATOMIC CHARGES
-----------------------
   0 C :   -0.213489
   1 O :   -0.300639
   2 C :    0.212429
   3 C :   -0.240021
   4 C :    0.099655
   5 C :   -0.420436
   6 C :   -0.172369
   7 C :   -0.229065
   8 C :   -0.239385
   9 H :    0.143066
  10 H :    0.118894
  11 H :    0.112996
  12 H :    0.115594
  13 H :    0.116325
  14 H :    0.134482
  15 H :    0.135763
  16 H :    0.134683
  17 H :    0.113425
  18 H :    0.110999
  19 H :    0.130914
  20 H :    0.136180
Sum of atomic charges:    0.0000000

LOEWDIN ATOMIC CHARGES
----------------------
   0 C :   -0.342423
   1 O :    0.187679
   2 C :   -0.322064
   3 C :   -0.154148
   4 C :   -0.236381
   5 C :   -0.277170
   6 C :   -0.137436
   7 C :   -0.111255
   8 C :   -0.115305
   9 H :    0.113861
  10 H :    0.104657
  11 H :    0.103695
  12 H :    0.127851
  13 H :    0.135476
  14 H :    0.127494
  15 H :    0.129031
  16 H :    0.128777
  17 H :    0.136711
  18 H :    0.130351
  19 H :    0.135186
  20 H :    0.135414

  Mayer bond orders larger than 0.1
B(  0-C ,  1-O ) :   0.8927 B(  0-C ,  9-H ) :   0.9414 B(  0-C , 10-H ) :   0.9342
B(  0-C , 11-H ) :   0.9306 B(  1-O ,  2-C ) :   1.0220 B(  2-C ,  3-C ) :   0.8976
B(  2-C ,  6-C ) :   0.9325 B(  2-C ,  8-C ) :   0.9136 B(  3-C ,  4-C ) :   0.9085
B(  3-C , 12-H ) :   0.9073 B(  3-C , 13-H ) :   0.9144 B(  4-C ,  5-C ) :   0.8293
B(  4-C ,  6-C ) :   0.9060 B(  4-C ,  7-C ) :   0.9050 B(  5-C , 14-H ) :   0.9510
B(  5-C , 15-H ) :   0.9431 B(  5-C , 16-H ) :   0.9448 B(  6-C , 17-H ) :   0.9193
B(  6-C , 18-H ) :   0.9092 B(  7-C ,  8-C ) :   1.7346 B(  7-C , 19-H ) :   0.9281
B(  8-C , 20-H ) :   0.9243

MP2 TOTAL ENERGY:     -386.374259611 Eh
FINAL SINGLE POINT ENERGY      -386.374259610524

DIPOLE MOMENT
-------------
                                X             Y             Z
Electronic contribution:      2.04342       0.61441       2.91947
Nuclear contribution   :     -2.38002      -0.39799      -3.13275
                        -----------------------------------------
Total Dipole Moment    :     -0.33660       0.21642      -0.21328
                        -----------------------------------------
Magnitude (a.u.)       :      0.45346
Magnitude (Debye)      :      1.15260

                             ****ORCA TERMINATED NORMALLY****
TOTAL RUN TIME: 0 days 0 hours 19 minutes 15 seconds 708 msec
