                         Program Version 3.0.3 - RELEASE   -
|  1> ! RI-MP2 RIJK def2-TZVP def2-TZVP/C def2-TZVP/JK TIGHTSCF
|  2> % maxcore 2000
|  3> % mp2 density relaxed end
|  4> *xyz 0 1
|  5>  C       -0.0305576497     1.4256315523     0.1012302418
|  6>  N       -0.0132099548    -0.0173579206     0.0120989994
|  7>  C       -0.0347627631    -0.7731709535    -1.1347365368
|  8>  N       -0.0098848616    -2.0558016412    -0.8834466744
|  9>  C        0.0301459237    -2.1711584223     0.4882453068
| 10>  C        0.0286710795    -0.9203444547     1.0569635049
| 11>  N        0.0594699350    -0.4729505197     2.3795646161
| 12>  C        0.1030095177    -1.2886795040     3.4799828463
| 13>  O        0.1198550836    -2.4969349475     3.4506737543
| 14>  H        0.8709462348     1.8080810226     0.5940028150
| 15>  H       -0.0643791545     1.8379485077    -0.9084050311
| 16>  H       -0.9133498770     1.7835898961     0.6437677549
| 17>  H       -0.0685743749    -0.3078978009    -2.1090071853
| 18>  H        0.0576005365    -3.1183062098     0.9965043565
| 19>  H        0.0501307921     0.5208310342     2.5476890442
| 20>  H        0.1210614128    -0.6953040387     4.4141386874
| 21> *
| 22>
| 23>                          ****END OF INPUT****

CARTESIAN COORDINATES (ANGSTROEM)
---------------------------------
  C     -0.030558    1.425632    0.101230
  N     -0.013210   -0.017358    0.012099
  C     -0.034763   -0.773171   -1.134737
  N     -0.009885   -2.055802   -0.883447
  C      0.030146   -2.171158    0.488245
  C      0.028671   -0.920344    1.056964
  N      0.059470   -0.472951    2.379565
  C      0.103010   -1.288680    3.479983
  O      0.119855   -2.496935    3.450674
  H      0.870946    1.808081    0.594003
  H     -0.064379    1.837949   -0.908405
  H     -0.913350    1.783590    0.643768
  H     -0.068574   -0.307898   -2.109007
  H      0.057601   -3.118306    0.996504
  H      0.050131    0.520831    2.547689
  H      0.121061   -0.695304    4.414139

 Total Charge           Charge          ....    0
 Multiplicity           Mult            ....    1
 Number of Electrons    NEL             ....   66
 Basis Dimension        Dim             ....  321

ORBITAL ENERGIES
----------------

  NO   OCC          E(Eh)            E(eV)
   0   2.0000     -20.541452      -558.9613
   1   2.0000     -15.627513      -425.2462
   2   2.0000     -15.624104      -425.1535
   3   2.0000     -15.542474      -422.9322
   4   2.0000     -11.367474      -309.3247
   5   2.0000     -11.307050      -307.6805
   6   2.0000     -11.301420      -307.5273
   7   2.0000     -11.290389      -307.2271
   8   2.0000     -11.231865      -305.6346
   9   2.0000      -1.403622       -38.1945
  10   2.0000      -1.355824       -36.8939
  11   2.0000      -1.260275       -34.2938
  12   2.0000      -1.186831       -32.2953
  13   2.0000      -1.020930       -27.7809
  14   2.0000      -0.974063       -26.5056
  15   2.0000      -0.882925       -24.0256
  16   2.0000      -0.823991       -22.4219
  17   2.0000      -0.776587       -21.1320
  18   2.0000      -0.746677       -20.3181
  19   2.0000      -0.714697       -19.4479
  20   2.0000      -0.671165       -18.2633
  21   2.0000      -0.660591       -17.9756
  22   2.0000      -0.630851       -17.1663
  23   2.0000      -0.604128       -16.4392
  24   2.0000      -0.600610       -16.3434
  25   2.0000      -0.585118       -15.9219
  26   2.0000      -0.563224       -15.3261
  27   2.0000      -0.555918       -15.1273
  28   2.0000      -0.464304       -12.6344
  29   2.0000      -0.449159       -12.2222
  30   2.0000      -0.433510       -11.7964
  31   2.0000      -0.387346       -10.5402
  32   2.0000      -0.296117        -8.0578
  33   0.0000       0.102068         2.7774
  34   0.0000       0.135693         3.6924
  35   0.0000       0.146492         3.9863
  36   0.0000       0.166832         4.5397
  37   0.0000       0.175450         4.7742

MULLIKEN ATOMIC CHARGES
-----------------------
   0 C :   -0.375617
   1 N :   -0.047636
   2 C :   -0.010747
   3 N :   -0.271520
   4 C :   -0.177291
   5 C :    0.212225
   6 N :   -0.322422
   7 C :    0.196192
   8 O :   -0.335023
   9 H :    0.160640
  10 H :    0.164074
  11 H :    0.160636
  12 H :    0.147397
  13 H :    0.168326
  14 H :    0.244088
  15 H :    0.086677
Sum of atomic charges:   -0.0000000

LOEWDIN ATOMIC CHARGES
----------------------
   0 C :   -0.279719
   1 N :    0.228605
   2 C :   -0.309874
   3 N :    0.091409
   4 C :   -0.236328
   5 C :   -0.264989
   6 N :    0.130655
   7 C :   -0.414589
   8 O :    0.093062
   9 H :    0.123393
  10 H :    0.135588
  11 H :    0.123388
  12 H :    0.131395
  13 H :    0.140920
  14 H :    0.193894
  15 H :    0.113190

  Mayer bond orders larger than 0.1
B(  0-C ,  1-N ) :   0.8697 B(  0-C ,  9-H ) :   0.9261 B(  0-C , 10-H ) :   0.9300
B(  0-C , 11-H ) :   0.9261 B(  1-N ,  2-C ) :   1.1348 B(  1-N ,  5-C ) :   1.0973
B(  2-C ,  3-N ) :   1.5842 B(  2-C , 12-H ) :   0.9218 B(  3-N ,  4-C ) :   1.2842
B(  4-C ,  5-C ) :   1.5069 B(  4-C , 13-H ) :   0.9222 B(  5-C ,  6-N ) :   0.9257
B(  6-N ,  7-C ) :   1.0983 B(  6-N , 14-H ) :   0.8688 B(  7-C ,  8-O ) :   1.9085
B(  7-C , 15-H ) :   0.9292

MP2 TOTAL ENERGY:     -433.393608766 Eh
FINAL SINGLE POINT ENERGY      -433.393608765568

DIPOLE MOMENT
-------------
                                X             Y             Z
Electronic contribution:      0.10785      -5.06216       1.32466
Nuclear contribution   :     -0.13985       7.91600      -1.02590
                        -----------------------------------------
Total Dipole Moment    :     -0.03199       2.85384       0.29876
                        -----------------------------------------
Magnitude (a.u.)       :      2.86962
Magnitude (Debye)      :      7.29399

                             ****ORCA TERMINATED NORMALLY****
TOTAL RUN TIME: 0 days 0 hours 15 minutes 32 seconds 31 msec
