                         Program Version 3.0.3 - RELEASE   -
|  1> ! RI-MP2 RIJK def2-TZVP def2-TZVP/C def2-TZVP/JK TIGHTSCF
|  2> % maxcore 2000
|  3> % mp2 density relaxed end
|  4> *xyz 0 1
|  5>  C       -0.5008085068     1.3766602446    -0.0227684346
|  6>  C        0.2335808850     0.0539099888    -0.0758368762
|  7>  O        1.5644011751     0.1588918862    -0.6266274347
|  8>  C        2.0856291902    -0.7628539315     0.3491557363
|  9>  C        0.8053836916    -0.6222725447     1.2182710296
| 10>  C        1.0298926782     0.3297093476     2.4086100801
| 11>  O        1.8661653874    -0.2514535027     3.3878142422
| 12>  C        0.1614207617    -1.8410909323     1.6717488530
| 13>  C       -0.3666746086    -2.8391598504     2.0889588651
| 14>  H        0.0492281822     2.1303962502     0.5452810726
| 15>  H       -0.6361800406     1.7543202355    -1.0411930326
| 16>  H       -1.4920670356     1.2465577169     0.4237132401
| 17>  H       -0.3578038020    -0.6765224773    -0.6470857542
| 18>  H        2.2310776575    -1.7671858493    -0.0671322587
| 19>  H        3.0130004759    -0.4118570167     0.8111380785
| 20>  H        1.5478541407     1.2272781298     2.0599614083
| 21>  H        0.0595895955     0.6339365350     2.8282627432
| 22>  H        1.4414971719    -1.0680486144     3.6774425508
| 23>  H       -0.8377669392    -3.7276774352     2.4311319010
| 24> *
| 25>
| 26>                          ****END OF INPUT****

CARTESIAN COORDINATES (ANGSTROEM)
---------------------------------
  C     -0.500809    1.376660   -0.022768
  C      0.233581    0.053910   -0.075837
  O      1.564401    0.158892   -0.626627
  C      2.085629   -0.762854    0.349156
  C      0.805384   -0.622273    1.218271
  C      1.029893    0.329709    2.408610
  O      1.866165   -0.251454    3.387814
  C      0.161421   -1.841091    1.671749
  C     -0.366675   -2.839160    2.088959
  H      0.049228    2.130396    0.545281
  H     -0.636180    1.754320   -1.041193
  H     -1.492067    1.246558    0.423713
  H     -0.357804   -0.676522   -0.647086
  H      2.231078   -1.767186   -0.067132
  H      3.013000   -0.411857    0.811138
  H      1.547854    1.227278    2.059961
  H      0.059590    0.633937    2.828263
  H      1.441497   -1.068049    3.677443
  H     -0.837767   -3.727677    2.431132

 Total Charge           Charge          ....    0
 Multiplicity           Mult            ....    1
 Number of Electrons    NEL             ....   68
 Basis Dimension        Dim             ....  339

ORBITAL ENERGIES
----------------

  NO   OCC          E(Eh)            E(eV)
   0   2.0000     -20.562622      -559.5374
   1   2.0000     -20.555944      -559.3557
   2   2.0000     -11.299213      -307.4672
   3   2.0000     -11.289513      -307.2033
   4   2.0000     -11.287088      -307.1373
   5   2.0000     -11.270602      -306.6887
   6   2.0000     -11.248721      -306.0932
   7   2.0000     -11.240279      -305.8635
   8   2.0000     -11.227043      -305.5034
   9   2.0000      -1.390968       -37.8502
  10   2.0000      -1.369300       -37.2605
  11   2.0000      -1.100095       -29.9351
  12   2.0000      -1.027812       -27.9682
  13   2.0000      -1.005848       -27.3705
  14   2.0000      -0.914034       -24.8721
  15   2.0000      -0.882835       -24.0232
  16   2.0000      -0.798521       -21.7289
  17   2.0000      -0.734427       -19.9848
  18   2.0000      -0.704001       -19.1568
  19   2.0000      -0.690733       -18.7958
  20   2.0000      -0.667050       -18.1514
  21   2.0000      -0.632641       -17.2150
  22   2.0000      -0.614125       -16.7112
  23   2.0000      -0.599516       -16.3137
  24   2.0000      -0.575669       -15.6648
  25   2.0000      -0.543193       -14.7810
  26   2.0000      -0.536572       -14.6009
  27   2.0000      -0.520195       -14.1552
  28   2.0000      -0.496321       -13.5056
  29   2.0000      -0.478868       -13.0307
  30   2.0000      -0.462764       -12.5925
  31   2.0000      -0.422071       -11.4851
  32   2.0000      -0.397018       -10.8034
  33   2.0000      -0.394086       -10.7236
  34   0.0000       0.131147         3.5687
  35   0.0000       0.143791         3.9128
  36   0.0000       0.157566         4.2876
  37   0.0000       0.162026         4.4090
  38   0.0000       0.165626         4.5069

MULLIKEN ATOMIC CHARGES
-----------------------
   0 C :   -0.404283
   1 C :    0.043546
   2 O :   -0.318261
   3 C :   -0.052686
   4 C :    0.041351
   5 C :   -0.057649
   6 O :   -0.471079
   7 C :   -0.153757
   8 C :   -0.134977
   9 H :    0.132889
  10 H :    0.148971
  11 H :    0.137292
  12 H :    0.091242
  13 H :    0.104169
  14 H :    0.123647
  15 H :    0.132779
  16 H :    0.115022
  17 H :    0.324182
  18 H :    0.197602
Sum of atomic charges:   -0.0000000

LOEWDIN ATOMIC CHARGES
----------------------
   0 C :   -0.290371
   1 C :   -0.254588
   2 O :    0.141509
   3 C :   -0.214229
   4 C :   -0.247141
   5 C :   -0.293025
   6 O :   -0.029680
   7 C :   -0.084432
   8 C :   -0.090018
   9 H :    0.126462
  10 H :    0.134067
  11 H :    0.131820
  12 H :    0.143583
  13 H :    0.124525
  14 H :    0.127404
  15 H :    0.138678
  16 H :    0.125543
  17 H :    0.180608
  18 H :    0.129285

  Mayer bond orders larger than 0.1
B(  0-C ,  1-C ) :   0.9113 B(  0-C ,  9-H ) :   0.9349 B(  0-C , 10-H ) :   0.9302
B(  0-C , 11-H ) :   0.9303 B(  1-C ,  2-O ) :   0.9580 B(  1-C ,  4-C ) :   0.8688
B(  1-C , 12-H ) :   0.9086 B(  2-O ,  3-C ) :   0.9384 B(  3-C ,  4-C ) :   0.9033
B(  3-C , 13-H ) :   0.9116 B(  3-C , 14-H ) :   0.9085 B(  4-C ,  5-C ) :   0.8983
B(  4-C ,  7-C ) :   1.1527 B(  4-C ,  8-C ) :  -0.1020 B(  5-C ,  6-O ) :   0.9382
B(  5-C , 15-H ) :   0.9210 B(  5-C , 16-H ) :   0.9255 B(  6-O , 17-H ) :   0.8364
B(  7-C ,  8-C ) :   2.5895 B(  8-C , 18-H ) :   0.8776

MP2 TOTAL ENERGY:     -422.261839499 Eh
FINAL SINGLE POINT ENERGY      -422.261839498949

DIPOLE MOMENT
-------------
                                X             Y             Z
Electronic contribution:      2.00641      -3.78969       0.79862
Nuclear contribution   :     -2.80293       3.39811      -0.58750
                        -----------------------------------------
Total Dipole Moment    :     -0.79653      -0.39159       0.21111
                        -----------------------------------------
Magnitude (a.u.)       :      0.91234
Magnitude (Debye)      :      2.31898

                             ****ORCA TERMINATED NORMALLY****
TOTAL RUN TIME: 0 days 0 hours 19 minutes 17 seconds 865 msec
