                         Program Version 3.0.3 - RELEASE   -
|  1> ! RI-MP2 RIJK def2-TZVP def2-TZVP/C def2-TZVP/JK TIGHTSCF
|  2> % maxcore 2000
|  3> % mp2 density relaxed end
|  4> *xyz 0 1
|  5>  O        0.0629377132     0.0205413023     0.3099639546
|  6>  C        0.0022526002     1.2129616586     0.0952372487
|  7>  C       -1.3068682940     1.9614979755    -0.0827294059
|  8>  C       -1.1653475366     3.1395849655    -1.0594096290
|  9>  O       -0.0779343002     3.9692133570    -0.6975636569
| 10>  C        1.1588184027     3.2986880630    -0.8517412282
| 11>  C        1.2453395779     2.0586050371     0.0267270199
| 12>  C        2.0997580306     2.0157393736     1.2576155043
| 13>  N        2.5276152790     1.3555198845     0.0274739701
| 14>  H       -2.0872416250     1.2586101485    -0.3872019702
| 15>  H       -1.5812112112     2.3608742147     0.9027439740
| 16>  H       -1.0352814246     2.7664706276    -2.0888517641
| 17>  H       -2.0609421734     3.7658478007    -1.0406388381
| 18>  H        1.3057120354     3.0013066120    -1.9033458115
| 19>  H        1.9458662296     4.0106355692    -0.5920618009
| 20>  H        2.6583089527     2.9072577996     1.5314989040
| 21>  H        1.7600103883     1.4015217443     2.0872276132
| 22>  H        2.3234020354     0.3574384062     0.0972968358
| 23> *
| 24>
| 25>                          ****END OF INPUT****

CARTESIAN COORDINATES (ANGSTROEM)
---------------------------------
  O      0.062938    0.020541    0.309964
  C      0.002253    1.212962    0.095237
  C     -1.306868    1.961498   -0.082729
  C     -1.165348    3.139585   -1.059410
  O     -0.077934    3.969213   -0.697564
  C      1.158818    3.298688   -0.851741
  C      1.245340    2.058605    0.026727
  C      2.099758    2.015739    1.257616
  N      2.527615    1.355520    0.027474
  H     -2.087242    1.258610   -0.387202
  H     -1.581211    2.360874    0.902744
  H     -1.035281    2.766471   -2.088852
  H     -2.060942    3.765848   -1.040639
  H      1.305712    3.001307   -1.903346
  H      1.945866    4.010636   -0.592062
  H      2.658309    2.907258    1.531499
  H      1.760010    1.401522    2.087228
  H      2.323402    0.357438    0.097297

 Total Charge           Charge          ....    0
 Multiplicity           Mult            ....    1
 Number of Electrons    NEL             ....   68
 Basis Dimension        Dim             ....  333

ORBITAL ENERGIES
----------------

  NO   OCC          E(Eh)            E(eV)
   0   2.0000     -20.573014      -559.8202
   1   2.0000     -20.556785      -559.3785
   2   2.0000     -15.571448      -423.7206
   3   2.0000     -11.343499      -308.6723
   4   2.0000     -11.297109      -307.4100
   5   2.0000     -11.292361      -307.2808
   6   2.0000     -11.278819      -306.9123
   7   2.0000     -11.275168      -306.8129
   8   2.0000     -11.249598      -306.1171
   9   2.0000      -1.405422       -38.2435
  10   2.0000      -1.394249       -37.9394
  11   2.0000      -1.280555       -34.8457
  12   2.0000      -1.065536       -28.9947
  13   2.0000      -1.012148       -27.5420
  14   2.0000      -0.895331       -24.3632
  15   2.0000      -0.872529       -23.7427
  16   2.0000      -0.868110       -23.6225
  17   2.0000      -0.749180       -20.3862
  18   2.0000      -0.706394       -19.2220
  19   2.0000      -0.691027       -18.8038
  20   2.0000      -0.669940       -18.2300
  21   2.0000      -0.650358       -17.6971
  22   2.0000      -0.618856       -16.8399
  23   2.0000      -0.612437       -16.6653
  24   2.0000      -0.592525       -16.1234
  25   2.0000      -0.578567       -15.7436
  26   2.0000      -0.552528       -15.0351
  27   2.0000      -0.514923       -14.0118
  28   2.0000      -0.508197       -13.8287
  29   2.0000      -0.497858       -13.5474
  30   2.0000      -0.467284       -12.7154
  31   2.0000      -0.442144       -12.0314
  32   2.0000      -0.420483       -11.4419
  33   2.0000      -0.400537       -10.8992
  34   0.0000       0.113504         3.0886
  35   0.0000       0.146504         3.9866
  36   0.0000       0.156393         4.2557
  37   0.0000       0.164634         4.4799
  38   0.0000       0.173207         4.7132

MULLIKEN ATOMIC CHARGES
-----------------------
   0 O :   -0.306466
   1 C :    0.175531
   2 C :   -0.202533
   3 C :   -0.080557
   4 O :   -0.302440
   5 C :   -0.050250
   6 C :    0.053386
   7 C :   -0.179680
   8 N :   -0.375240
   9 H :    0.139290
  10 H :    0.131104
  11 H :    0.106545
  12 H :    0.136511
  13 H :    0.111167
  14 H :    0.133149
  15 H :    0.128702
  16 H :    0.141824
  17 H :    0.239958
Sum of atomic charges:   -0.0000000

LOEWDIN ATOMIC CHARGES
----------------------
   0 O :    0.144985
   1 C :   -0.296391
   2 C :   -0.226098
   3 C :   -0.311068
   4 O :    0.162712
   5 C :   -0.268541
   6 C :   -0.288468
   7 C :   -0.223021
   8 N :    0.031641
   9 H :    0.151188
  10 H :    0.160230
  11 H :    0.124080
  12 H :    0.132603
  13 H :    0.129731
  14 H :    0.139458
  15 H :    0.129278
  16 H :    0.129958
  17 H :    0.177723

  Mayer bond orders larger than 0.1
B(  0-O ,  1-C ) :   1.9515 B(  1-C ,  2-C ) :   0.9373 B(  1-C ,  6-C ) :   0.9343
B(  2-C ,  3-C ) :   0.9093 B(  2-C ,  9-H ) :   0.9164 B(  2-C , 10-H ) :   0.8946
B(  3-C ,  4-O ) :   0.9210 B(  3-C , 11-H ) :   0.9302 B(  3-C , 12-H ) :   0.9261
B(  4-O ,  5-C ) :   0.9420 B(  5-C ,  6-C ) :   0.8555 B(  5-C , 13-H ) :   0.9521
B(  5-C , 14-H ) :   0.9227 B(  6-C ,  7-C ) :   0.8939 B(  6-C ,  8-N ) :   0.9006
B(  7-C ,  8-N ) :   0.9412 B(  7-C , 15-H ) :   0.9151 B(  7-C , 16-H ) :   0.9080
B(  8-N , 17-H ) :   0.8543

MP2 TOTAL ENERGY:     -438.361629151 Eh
FINAL SINGLE POINT ENERGY      -438.361629151179

DIPOLE MOMENT
-------------
                                X             Y             Z
Electronic contribution:      0.64982      -2.18969       0.42269
Nuclear contribution   :     -1.14842       2.59366      -0.33921
                        -----------------------------------------
Total Dipole Moment    :     -0.49860       0.40397       0.08348
                        -----------------------------------------
Magnitude (a.u.)       :      0.64712
Magnitude (Debye)      :      1.64486

                             ****ORCA TERMINATED NORMALLY****
TOTAL RUN TIME: 0 days 0 hours 16 minutes 4 seconds 135 msec
