                         Program Version 3.0.3 - RELEASE   -
|  1> ! RI-MP2 RIJK def2-TZVP def2-TZVP/C def2-TZVP/JK TIGHTSCF
|  2> % maxcore 2000
|  3> % mp2 density relaxed end
|  4> *xyz 0 1
|  5>  C       -0.0557488385     1.4635682793     0.0088385422
|  6>  N       -0.0312504723    -0.0002590268     0.0007879317
|  7>  C       -1.2461808930    -0.6647964783     0.0045219879
|  8>  N       -2.3509758285    -0.0349728198     0.0146941004
|  9>  N       -1.0807240624    -2.0517970724    -0.0040760095
| 10>  N        0.0822712223    -2.7284081375    -0.0145049298
| 11>  N        1.1716132724    -2.1032258122    -0.0174407686
| 12>  C        1.1938723068    -0.6668843212    -0.0097570207
| 13>  O        2.2509641081    -0.0894093818    -0.0126158446
| 14>  H        0.9771683418     1.8025291917     0.0026668898
| 15>  H       -0.5920862220     1.8281205636    -0.8697577869
| 16>  H       -0.5781951891     1.8188326233     0.8995658507
| 17>  H       -3.1528479065    -0.6609033472     0.0160635554
| 18>  H       -1.8941333589    -2.6474392607    -0.0024059280
| 19> *
| 20>
| 21>                          ****END OF INPUT****

CARTESIAN COORDINATES (ANGSTROEM)
---------------------------------
  C     -0.055749    1.463568    0.008839
  N     -0.031250   -0.000259    0.000788
  C     -1.246181   -0.664796    0.004522
  N     -2.350976   -0.034973    0.014694
  N     -1.080724   -2.051797   -0.004076
  N      0.082271   -2.728408   -0.014505
  N      1.171613   -2.103226   -0.017441
  C      1.193872   -0.666884   -0.009757
  O      2.250964   -0.089409   -0.012616
  H      0.977168    1.802529    0.002667
  H     -0.592086    1.828121   -0.869758
  H     -0.578195    1.818833    0.899566
  H     -3.152848   -0.660903    0.016064
  H     -1.894133   -2.647439   -0.002406

 Total Charge           Charge          ....    0
 Multiplicity           Mult            ....    1
 Number of Electrons    NEL             ....   66
 Basis Dimension        Dim             ....  309

ORBITAL ENERGIES
----------------

  NO   OCC          E(Eh)            E(eV)
   0   2.0000     -20.554438      -559.3147
   1   2.0000     -15.732699      -428.1085
   2   2.0000     -15.677398      -426.6037
   3   2.0000     -15.641709      -425.6325
   4   2.0000     -15.641676      -425.6317
   5   2.0000     -15.557779      -423.3487
   6   2.0000     -11.410119      -310.4851
   7   2.0000     -11.399255      -310.1895
   8   2.0000     -11.272605      -306.7432
   9   2.0000      -1.481977       -40.3266
  10   2.0000      -1.418056       -38.5873
  11   2.0000      -1.333588       -36.2888
  12   2.0000      -1.260540       -34.3010
  13   2.0000      -1.193555       -32.4783
  14   2.0000      -1.033274       -28.1168
  15   2.0000      -0.945536       -25.7293
  16   2.0000      -0.920937       -25.0600
  17   2.0000      -0.832175       -22.6446
  18   2.0000      -0.801874       -21.8201
  19   2.0000      -0.705433       -19.1958
  20   2.0000      -0.705400       -19.1949
  21   2.0000      -0.669094       -18.2070
  22   2.0000      -0.648681       -17.6515
  23   2.0000      -0.626820       -17.0566
  24   2.0000      -0.604281       -16.4433
  25   2.0000      -0.577383       -15.7114
  26   2.0000      -0.569270       -15.4906
  27   2.0000      -0.530271       -14.4294
  28   2.0000      -0.512874       -13.9560
  29   2.0000      -0.471436       -12.8284
  30   2.0000      -0.437921       -11.9164
  31   2.0000      -0.426556       -11.6072
  32   2.0000      -0.392942       -10.6925
  33   0.0000       0.060159         1.6370
  34   0.0000       0.104968         2.8563
  35   0.0000       0.147377         4.0103
  36   0.0000       0.154674         4.2089
  37   0.0000       0.177185         4.8215

MULLIKEN ATOMIC CHARGES
-----------------------
   0 C :   -0.299962
   1 N :   -0.076211
   2 C :    0.204520
   3 N :   -0.416461
   4 N :   -0.177184
   5 N :   -0.029286
   6 N :   -0.123419
   7 C :    0.239389
   8 O :   -0.300864
   9 H :    0.187199
  10 H :    0.156557
  11 H :    0.156439
  12 H :    0.212284
  13 H :    0.267000
Sum of atomic charges:   -0.0000000

LOEWDIN ATOMIC CHARGES
----------------------
   0 C :   -0.253009
   1 N :    0.221401
   2 C :   -0.424535
   3 N :   -0.074322
   4 N :    0.077840
   5 N :    0.003081
   6 N :    0.044686
   7 C :   -0.487416
   8 O :    0.136650
   9 H :    0.135767
  10 H :    0.129443
  11 H :    0.129417
  12 H :    0.164584
  13 H :    0.196413

  Mayer bond orders larger than 0.1
B(  0-C ,  1-N ) :   0.8403 B(  0-C ,  9-H ) :   0.9127 B(  0-C , 10-H ) :   0.9288
B(  0-C , 11-H ) :   0.9289 B(  1-N ,  2-C ) :   1.0646 B(  1-N ,  7-C ) :   1.0690
B(  2-C ,  3-N ) :   1.9075 B(  2-C ,  4-N ) :   1.0178 B(  3-N , 12-H ) :   0.8526
B(  4-N ,  5-N ) :   1.0011 B(  4-N ,  6-N ) :   0.1022 B(  4-N , 13-H ) :   0.8664
B(  5-N ,  6-N ) :   1.4860 B(  6-N ,  7-C ) :   1.0665 B(  7-C ,  8-O ) :   1.9596

MP2 TOTAL ENERGY:     -465.424444184 Eh
FINAL SINGLE POINT ENERGY      -465.424444183996

DIPOLE MOMENT
-------------
                                X             Y             Z
Electronic contribution:      3.10062      -5.55661      -0.04829
Nuclear contribution   :     -4.83881       5.49197       0.05787
                        -----------------------------------------
Total Dipole Moment    :     -1.73819      -0.06463       0.00958
                        -----------------------------------------
Magnitude (a.u.)       :      1.73942
Magnitude (Debye)      :      4.42125

                             ****ORCA TERMINATED NORMALLY****
TOTAL RUN TIME: 0 days 0 hours 15 minutes 23 seconds 223 msec
