                         Program Version 3.0.3 - RELEASE   -
|  1> ! RI-MP2 RIJK def2-TZVP def2-TZVP/C def2-TZVP/JK TIGHTSCF
|  2> % maxcore 2000
|  3> % mp2 density relaxed end
|  4> *xyz 0 1
|  5>  C       -0.5675709735     1.3557504693     0.0700066906
|  6>  C        0.1142536142     0.0050210412    -0.0423412885
|  7>  C        0.9741721017    -0.2636653337    -1.2968705617
|  8>  C        2.1629977295    -0.3240737079    -0.3094342146
|  9>  O        1.2767721910    -0.0994517887     0.8174256814
| 10>  C        2.9281115062    -1.6095207233    -0.2061572206
| 11>  C        4.2211848140    -1.7678096743    -0.9715809135
| 12>  C        4.2435258941    -1.6442813814     0.5295325909
| 13>  H        0.1249297161     2.1651285976    -0.1831340392
| 14>  H       -1.4282489416     1.4096434554    -0.6063210472
| 15>  H       -0.9246965292     1.5185754781     1.0917727388
| 16>  H       -0.6024160321    -0.7951006441     0.1885861614
| 17>  H        0.7661066119    -1.2011851291    -1.8162821817
| 18>  H        1.0046006185     0.5503914029    -2.0238920818
| 19>  H        2.8708234480     0.5118676383    -0.4132679063
| 20>  H        2.3011102543    -2.4932671123    -0.1200703358
| 21>  H        4.4365147728    -2.7323981569    -1.4170082516
| 22>  H        4.5714732155    -0.9229043182    -1.5559051968
| 23>  H        4.6053020730    -0.7156308623     0.9584852239
| 24>  H        4.4760973254    -2.5247944806     1.1175689520
| 25> *
| 26>
| 27>                          ****END OF INPUT****

CARTESIAN COORDINATES (ANGSTROEM)
---------------------------------
  C     -0.567571    1.355750    0.070007
  C      0.114254    0.005021   -0.042341
  C      0.974172   -0.263665   -1.296871
  C      2.162998   -0.324074   -0.309434
  O      1.276772   -0.099452    0.817426
  C      2.928112   -1.609521   -0.206157
  C      4.221185   -1.767810   -0.971581
  C      4.243526   -1.644281    0.529533
  H      0.124930    2.165129   -0.183134
  H     -1.428249    1.409643   -0.606321
  H     -0.924697    1.518575    1.091773
  H     -0.602416   -0.795101    0.188586
  H      0.766107   -1.201185   -1.816282
  H      1.004601    0.550391   -2.023892
  H      2.870823    0.511868   -0.413268
  H      2.301110   -2.493267   -0.120070
  H      4.436515   -2.732398   -1.417008
  H      4.571473   -0.922904   -1.555905
  H      4.605302   -0.715631    0.958485
  H      4.476097   -2.524794    1.117569

 Total Charge           Charge          ....    0
 Multiplicity           Mult            ....    1
 Number of Electrons    NEL             ....   62
 Basis Dimension        Dim             ....  320

ORBITAL ENERGIES
----------------

  NO   OCC          E(Eh)            E(eV)
   0   2.0000     -20.536249      -558.8198
   1   2.0000     -11.279684      -306.9358
   2   2.0000     -11.277817      -306.8850
   3   2.0000     -11.227955      -305.5282
   4   2.0000     -11.226737      -305.4950
   5   2.0000     -11.223774      -305.4144
   6   2.0000     -11.223645      -305.4109
   7   2.0000     -11.214075      -305.1505
   8   2.0000      -1.368268       -37.2325
   9   2.0000      -1.142838       -31.0982
  10   2.0000      -1.025840       -27.9145
  11   2.0000      -0.989354       -26.9217
  12   2.0000      -0.891115       -24.2485
  13   2.0000      -0.821790       -22.3620
  14   2.0000      -0.799182       -21.7469
  15   2.0000      -0.741531       -20.1781
  16   2.0000      -0.676873       -18.4187
  17   2.0000      -0.669002       -18.2045
  18   2.0000      -0.629933       -17.1413
  19   2.0000      -0.616682       -16.7808
  20   2.0000      -0.598728       -16.2922
  21   2.0000      -0.542407       -14.7597
  22   2.0000      -0.539544       -14.6817
  23   2.0000      -0.524327       -14.2677
  24   2.0000      -0.514006       -13.9868
  25   2.0000      -0.510056       -13.8793
  26   2.0000      -0.469550       -12.7771
  27   2.0000      -0.450782       -12.2664
  28   2.0000      -0.422840       -11.5061
  29   2.0000      -0.405400       -11.0315
  30   2.0000      -0.398286       -10.8379
  31   0.0000       0.143052         3.8927
  32   0.0000       0.149709         4.0738
  33   0.0000       0.160787         4.3752
  34   0.0000       0.171335         4.6623
  35   0.0000       0.189622         5.1599

MULLIKEN ATOMIC CHARGES
-----------------------
   0 C :   -0.408500
   1 C :    0.137568
   2 C :   -0.299003
   3 C :    0.094416
   4 O :   -0.342053
   5 C :   -0.082656
   6 C :   -0.276838
   7 C :   -0.267708
   8 H :    0.124912
   9 H :    0.123028
  10 H :    0.136662
  11 H :    0.084406
  12 H :    0.126463
  13 H :    0.124064
  14 H :    0.085296
  15 H :    0.118819
  16 H :    0.131086
  17 H :    0.126643
  18 H :    0.131947
  19 H :    0.131448
Sum of atomic charges:    0.0000000

LOEWDIN ATOMIC CHARGES
----------------------
   0 C :   -0.300372
   1 C :   -0.307497
   2 C :   -0.203911
   3 C :   -0.267582
   4 O :    0.151902
   5 C :   -0.217005
   6 C :   -0.226802
   7 C :   -0.222175
   8 H :    0.124445
   9 H :    0.125831
  10 H :    0.127612
  11 H :    0.131231
  12 H :    0.133418
  13 H :    0.131667
  14 H :    0.138560
  15 H :    0.149810
  16 H :    0.131124
  17 H :    0.132532
  18 H :    0.135010
  19 H :    0.132205

  Mayer bond orders larger than 0.1
B(  0-C ,  1-C ) :   0.9243 B(  0-C ,  8-H ) :   0.9360 B(  0-C ,  9-H ) :   0.9302
B(  0-C , 10-H ) :   0.9368 B(  1-C ,  2-C ) :   0.9387 B(  1-C ,  4-O ) :   0.9204
B(  1-C , 11-H ) :   0.9132 B(  2-C ,  3-C ) :   0.9136 B(  2-C , 12-H ) :   0.9259
B(  2-C , 13-H ) :   0.9308 B(  3-C ,  4-O ) :   0.9283 B(  3-C ,  5-C ) :   0.9542
B(  3-C , 14-H ) :   0.9032 B(  5-C ,  6-C ) :   0.8627 B(  5-C ,  7-C ) :   0.8783
B(  5-C , 15-H ) :   0.9170 B(  6-C ,  7-C ) :   0.9094 B(  6-C , 16-H ) :   0.9270
B(  6-C , 17-H ) :   0.9269 B(  7-C , 18-H ) :   0.9296 B(  7-C , 19-H ) :   0.9297

MP2 TOTAL ENERGY:     -348.369255679 Eh
FINAL SINGLE POINT ENERGY      -348.369255679074

DIPOLE MOMENT
-------------
                                X             Y             Z
Electronic contribution:      0.36037      -0.99591       1.94903
Nuclear contribution   :     -0.44545       0.91016      -2.61408
                        -----------------------------------------
Total Dipole Moment    :     -0.08508      -0.08576      -0.66505
                        -----------------------------------------
Magnitude (a.u.)       :      0.67593
Magnitude (Debye)      :      1.71807

                             ****ORCA TERMINATED NORMALLY****
TOTAL RUN TIME: 0 days 0 hours 12 minutes 13 seconds 502 msec
