                         Program Version 3.0.3 - RELEASE   -
|  1> ! RI-MP2 RIJK def2-TZVP def2-TZVP/C def2-TZVP/JK TIGHTSCF
|  2> % maxcore 2000
|  3> % mp2 density relaxed end
|  4> *xyz 0 1
|  5>  C        0.1555267978     1.3317377492    -0.2233687992
|  6>  O       -0.2012426672     0.0003329126     0.1127506112
|  7>  C        0.5377706842    -0.5177881513     1.1509744018
|  8>  C        1.9537445496    -1.0016423975     0.9842609359
|  9>  C        0.8704328225    -1.9689047583     1.4360750103
| 10>  N        0.4673272922    -1.8398071745     2.8530111575
| 11>  C        1.5344163490    -1.4714687378     3.8491816390
| 12>  C        1.1881717148     0.0394773750     3.7125325046
| 13>  C        0.1514700612    -0.3830018770     2.6371108754
| 14>  H        1.2139616863     1.4023207584    -0.5098459026
| 15>  H       -0.4685661332     1.6248808095    -1.0702688900
| 16>  H       -0.0280981560     2.0246028587     0.6100706904
| 17>  H        2.2342439181    -1.1434133670    -0.0551758754
| 18>  H        2.7702251381    -0.6912108209     1.6285184833
| 19>  H        0.6516022008    -2.8744168017     0.8813252276
| 20>  H        1.3241556001    -1.9035866053     4.8311129091
| 21>  H        2.5473390634    -1.7616175854     3.5543560835
| 22>  H        0.7431467111     0.4808681642     4.6065081498
| 23>  H        1.9944937141     0.6909054163     3.3662526339
| 24>  H       -0.8918308567    -0.0891902173     2.7851882140
| 25> *
| 26>
| 27>                          ****END OF INPUT****

CARTESIAN COORDINATES (ANGSTROEM)
---------------------------------
  C      0.155527    1.331738   -0.223369
  O     -0.201243    0.000333    0.112751
  C      0.537771   -0.517788    1.150974
  C      1.953745   -1.001642    0.984261
  C      0.870433   -1.968905    1.436075
  N      0.467327   -1.839807    2.853011
  C      1.534416   -1.471469    3.849182
  C      1.188172    0.039477    3.712533
  C      0.151470   -0.383002    2.637111
  H      1.213962    1.402321   -0.509846
  H     -0.468566    1.624881   -1.070269
  H     -0.028098    2.024603    0.610071
  H      2.234244   -1.143413   -0.055176
  H      2.770225   -0.691211    1.628518
  H      0.651602   -2.874417    0.881325
  H      1.324156   -1.903587    4.831113
  H      2.547339   -1.761618    3.554356
  H      0.743147    0.480868    4.606508
  H      1.994494    0.690905    3.366253
  H     -0.891831   -0.089190    2.785188

 Total Charge           Charge          ....    0
 Multiplicity           Mult            ....    1
 Number of Electrons    NEL             ....   68
 Basis Dimension        Dim             ....  345

ORBITAL ENERGIES
----------------

  NO   OCC          E(Eh)            E(eV)
   0   2.0000     -20.567052      -559.6579
   1   2.0000     -15.544028      -422.9745
   2   2.0000     -11.288501      -307.1757
   3   2.0000     -11.276197      -306.8409
   4   2.0000     -11.258654      -306.3635
   5   2.0000     -11.257632      -306.3357
   6   2.0000     -11.249044      -306.1021
   7   2.0000     -11.231513      -305.6250
   8   2.0000     -11.227396      -305.5130
   9   2.0000      -1.392110       -37.8812
  10   2.0000      -1.275322       -34.7033
  11   2.0000      -1.100687       -29.9512
  12   2.0000      -0.980265       -26.6744
  13   2.0000      -0.947771       -25.7902
  14   2.0000      -0.924153       -25.1475
  15   2.0000      -0.814037       -22.1511
  16   2.0000      -0.788600       -21.4589
  17   2.0000      -0.715920       -19.4812
  18   2.0000      -0.707991       -19.2654
  19   2.0000      -0.683186       -18.5904
  20   2.0000      -0.631324       -17.1792
  21   2.0000      -0.628138       -17.0925
  22   2.0000      -0.621727       -16.9181
  23   2.0000      -0.569092       -15.4858
  24   2.0000      -0.564175       -15.3520
  25   2.0000      -0.553292       -15.0558
  26   2.0000      -0.521135       -14.1808
  27   2.0000      -0.509116       -13.8538
  28   2.0000      -0.490690       -13.3524
  29   2.0000      -0.458460       -12.4753
  30   2.0000      -0.442966       -12.0537
  31   2.0000      -0.426678       -11.6105
  32   2.0000      -0.372264       -10.1298
  33   2.0000      -0.347238        -9.4488
  34   0.0000       0.136635         3.7180
  35   0.0000       0.155824         4.2402
  36   0.0000       0.165188         4.4950
  37   0.0000       0.167601         4.5606
  38   0.0000       0.191605         5.2138

MULLIKEN ATOMIC CHARGES
-----------------------
   0 C :   -0.210782
   1 O :   -0.297626
   2 C :    0.118659
   3 C :   -0.289512
   4 C :   -0.103293
   5 N :   -0.166002
   6 C :   -0.163771
   7 C :   -0.293481
   8 C :    0.024030
   9 H :    0.118321
  10 H :    0.142746
  11 H :    0.118262
  12 H :    0.135811
  13 H :    0.136983
  14 H :    0.133681
  15 H :    0.118130
  16 H :    0.117857
  17 H :    0.126746
  18 H :    0.121217
  19 H :    0.112026
Sum of atomic charges:   -0.0000000

LOEWDIN ATOMIC CHARGES
----------------------
   0 C :   -0.335839
   1 O :    0.196390
   2 C :   -0.313006
   3 C :   -0.202690
   4 C :   -0.189869
   5 N :    0.124146
   6 C :   -0.248427
   7 C :   -0.232208
   8 C :   -0.175688
   9 H :    0.104400
  10 H :    0.113947
  11 H :    0.104248
  12 H :    0.148027
  13 H :    0.129401
  14 H :    0.134476
  15 H :    0.122659
  16 H :    0.120392
  17 H :    0.131064
  18 H :    0.128965
  19 H :    0.139612

  Mayer bond orders larger than 0.1
B(  0-C ,  1-O ) :   0.8826 B(  0-C ,  9-H ) :   0.9336 B(  0-C , 10-H ) :   0.9403
B(  0-C , 11-H ) :   0.9348 B(  1-O ,  2-C ) :   1.0137 B(  2-C ,  3-C ) :   0.8922
B(  2-C ,  4-C ) :   0.8986 B(  2-C ,  8-C ) :   0.9342 B(  3-C ,  4-C ) :   0.8623
B(  3-C , 12-H ) :   0.9173 B(  3-C , 13-H ) :   0.8986 B(  4-C ,  5-N ) :   0.9715
B(  4-C , 14-H ) :   0.9122 B(  5-N ,  6-C ) :   0.8959 B(  5-N ,  8-C ) :   0.9418
B(  6-C ,  7-C ) :   0.9735 B(  6-C , 15-H ) :   0.9224 B(  6-C , 16-H ) :   0.9314
B(  7-C ,  8-C ) :   0.8954 B(  7-C , 17-H ) :   0.9214 B(  7-C , 18-H ) :   0.9159
B(  8-C , 19-H ) :   0.8928

MP2 TOTAL ENERGY:     -402.362174576 Eh
FINAL SINGLE POINT ENERGY      -402.362174576258

DIPOLE MOMENT
-------------
                                X             Y             Z
Electronic contribution:     -3.06734      -3.40184      -0.77677
Nuclear contribution   :      3.71945       4.14408       0.76087
                        -----------------------------------------
Total Dipole Moment    :      0.65210       0.74224      -0.01590
                        -----------------------------------------
Magnitude (a.u.)       :      0.98814
Magnitude (Debye)      :      2.51165

                             ****ORCA TERMINATED NORMALLY****
TOTAL RUN TIME: 0 days 0 hours 19 minutes 46 seconds 549 msec
