                         Program Version 3.0.3 - RELEASE   -
|  1> ! RI-MP2 RIJK def2-TZVP def2-TZVP/C def2-TZVP/JK TIGHTSCF
|  2> % maxcore 2000
|  3> % mp2 density relaxed end
|  4> *xyz 0 1
|  5>  O       -0.2131368643     0.0808041809    -0.2778765091
|  6>  C       -0.0214277720     1.1890485991     0.1462371691
|  7>  C        1.2940635286     1.9503675150     0.0139085555
|  8>  C        1.5735337347     2.5781009175     1.3016171052
|  9>  N        1.7415936496     3.0512104019     2.3436838314
| 10>  C        2.4894998654     1.3205671982    -0.7833545867
| 11>  C        1.6730272811     1.5477345245    -2.0930505514
| 12>  C        1.5170126767     2.8600005407    -1.2752882613
| 13>  C        3.0409640171     2.7653474593    -0.9784471897
| 14>  H       -0.8117606166     1.7504508891     0.6893198229
| 15>  H        3.0348135070     0.4280603557    -0.4811647624
| 16>  H        2.2717404444     1.6434252825    -3.0005718590
| 17>  H        0.7950511596     0.9273189566    -2.2541699831
| 18>  H        0.9320964452     3.7473527783    -1.5163277525
| 19>  H        3.4157146503     3.2872747432    -0.0968114065
| 20>  H        3.6937941530     2.9086166274    -1.8412878724
| 21> *
| 22>
| 23>                          ****END OF INPUT****

CARTESIAN COORDINATES (ANGSTROEM)
---------------------------------
  O     -0.213137    0.080804   -0.277877
  C     -0.021428    1.189049    0.146237
  C      1.294064    1.950368    0.013909
  C      1.573534    2.578101    1.301617
  N      1.741594    3.051210    2.343684
  C      2.489500    1.320567   -0.783355
  C      1.673027    1.547735   -2.093051
  C      1.517013    2.860001   -1.275288
  C      3.040964    2.765347   -0.978447
  H     -0.811761    1.750451    0.689320
  H      3.034814    0.428060   -0.481165
  H      2.271740    1.643425   -3.000572
  H      0.795051    0.927319   -2.254170
  H      0.932096    3.747353   -1.516328
  H      3.415715    3.287275   -0.096811
  H      3.693794    2.908617   -1.841288

 Total Charge           Charge          ....    0
 Multiplicity           Mult            ....    1
 Number of Electrons    NEL             ....   64
 Basis Dimension        Dim             ....  321

ORBITAL ENERGIES
----------------

  NO   OCC          E(Eh)            E(eV)
   0   2.0000     -20.582211      -560.0704
   1   2.0000     -15.583957      -424.0610
   2   2.0000     -11.358753      -309.0874
   3   2.0000     -11.310464      -307.7734
   4   2.0000     -11.293462      -307.3107
   5   2.0000     -11.285550      -307.0954
   6   2.0000     -11.284823      -307.0756
   7   2.0000     -11.260514      -306.4142
   8   2.0000     -11.256839      -306.3142
   9   2.0000      -1.422846       -38.7176
  10   2.0000      -1.259393       -34.2698
  11   2.0000      -1.223171       -33.2842
  12   2.0000      -1.029649       -28.0182
  13   2.0000      -0.940351       -25.5883
  14   2.0000      -0.895268       -24.3615
  15   2.0000      -0.846078       -23.0229
  16   2.0000      -0.792089       -21.5538
  17   2.0000      -0.723202       -19.6793
  18   2.0000      -0.711715       -19.3667
  19   2.0000      -0.669498       -18.2180
  20   2.0000      -0.665010       -18.0958
  21   2.0000      -0.584884       -15.9155
  22   2.0000      -0.568947       -15.4818
  23   2.0000      -0.563037       -15.3210
  24   2.0000      -0.531249       -14.4560
  25   2.0000      -0.522546       -14.2192
  26   2.0000      -0.497533       -13.5386
  27   2.0000      -0.489465       -13.3190
  28   2.0000      -0.484296       -13.1784
  29   2.0000      -0.480121       -13.0648
  30   2.0000      -0.444845       -12.1048
  31   2.0000      -0.430014       -11.7013
  32   0.0000       0.094774         2.5789
  33   0.0000       0.141204         3.8424
  34   0.0000       0.144185         3.9235
  35   0.0000       0.148664         4.0454
  36   0.0000       0.166958         4.5432

MULLIKEN ATOMIC CHARGES
-----------------------
   0 O :   -0.246117
   1 C :    0.054169
   2 C :    0.186863
   3 C :   -0.260661
   4 N :   -0.028420
   5 C :   -0.099563
   6 C :   -0.237413
   7 C :   -0.123386
   8 C :   -0.233295
   9 H :    0.109727
  10 H :    0.159167
  11 H :    0.129474
  12 H :    0.152060
  13 H :    0.155537
  14 H :    0.151572
  15 H :    0.130288
Sum of atomic charges:   -0.0000000

LOEWDIN ATOMIC CHARGES
----------------------
   0 O :    0.160539
   1 C :   -0.237191
   2 C :   -0.193181
   3 C :   -0.158919
   4 N :    0.076948
   5 C :   -0.116246
   6 C :   -0.178603
   7 C :   -0.115380
   8 C :   -0.178868
   9 H :    0.126953
  10 H :    0.136314
  11 H :    0.134869
  12 H :    0.135368
  13 H :    0.133422
  14 H :    0.139537
  15 H :    0.134438

  Mayer bond orders larger than 0.1
B(  0-O ,  1-C ) :   1.9912 B(  1-C ,  2-C ) :   0.8339 B(  1-C ,  9-H ) :   0.9422
B(  2-C ,  3-C ) :   0.8984 B(  2-C ,  5-C ) :   0.8414 B(  2-C ,  7-C ) :   0.8309
B(  3-C ,  4-N ) :   2.8761 B(  5-C ,  6-C ) :   0.8978 B(  5-C ,  8-C ) :   0.9132
B(  5-C , 10-H ) :   0.8806 B(  6-C ,  7-C ) :   0.9100 B(  6-C , 11-H ) :   0.9331
B(  6-C , 12-H ) :   0.9227 B(  7-C ,  8-C ) :   0.9143 B(  7-C , 13-H ) :   0.8850
B(  8-C , 14-H ) :   0.9192 B(  8-C , 15-H ) :   0.9351

MP2 TOTAL ENERGY:     -400.020668863 Eh
FINAL SINGLE POINT ENERGY      -400.020668863463

DIPOLE MOMENT
-------------
                                X             Y             Z
Electronic contribution:     -2.86931      -1.05862       5.35315
Nuclear contribution   :      3.08693       1.32025      -6.64807
                        -----------------------------------------
Total Dipole Moment    :      0.21762       0.26162      -1.29492
                        -----------------------------------------
Magnitude (a.u.)       :      1.33889
Magnitude (Debye)      :      3.40318

                             ****ORCA TERMINATED NORMALLY****
TOTAL RUN TIME: 0 days 0 hours 17 minutes 17 seconds 774 msec
