                         Program Version 3.0.3 - RELEASE   -
|  1> ! RI-MP2 RIJK def2-TZVP def2-TZVP/C def2-TZVP/JK TIGHTSCF
|  2> % maxcore 2000
|  3> % mp2 density relaxed end
|  4> *xyz 0 1
|  5>  C        0.1270680264     1.5745834598    -0.0660045892
|  6>  C       -0.0073917272     0.0478209232    -0.0403188778
|  7>  C       -1.4443273585    -0.5017803249     0.0449552431
|  8>  C       -2.2820438956    -0.0549667155    -1.1680145031
|  9>  C       -1.4258063379    -2.0592890401     0.1241574491
| 10>  C       -2.7477615744    -2.4637132713     0.7923932304
| 11>  C       -3.1417161970    -1.2568188001     1.6532753095
| 12>  O       -4.0609614358    -1.2159381632     2.4292712821
| 13>  C       -2.1644913717    -0.1156460020     1.3570956843
| 14>  H        1.1820287336     1.8656005614    -0.0722012652
| 15>  H       -0.3368376534     2.0128330997    -0.9545896180
| 16>  H       -0.3357579147     2.0347600521     0.8133537797
| 17>  H        0.4724797814    -0.3714120987    -0.9353228784
| 18>  H        0.5579254813    -0.3432566718     0.8160991425
| 19>  H       -1.8028524738    -0.3586292373    -2.1052398009
| 20>  H       -3.2844797591    -0.4956881209    -1.1504961135
| 21>  H       -2.4103763523     1.0310876089    -1.1912980445
| 22>  H       -1.2840830027    -2.5135605388    -0.8608027876
| 23>  H       -0.5824310142    -2.3774454916     0.7483975791
| 24>  H       -3.5505092589    -2.6313103382     0.0646022311
| 25>  H       -2.6916152012    -3.3674890419     1.4047681942
| 26>  H       -1.4521068133    -0.0818874024     2.1939511170
| 27>  H       -2.6832682110     0.8458483334     1.3403306160
| 28> *
| 29>
| 30>                          ****END OF INPUT****

CARTESIAN COORDINATES (ANGSTROEM)
---------------------------------
  C      0.127068    1.574583   -0.066005
  C     -0.007392    0.047821   -0.040319
  C     -1.444327   -0.501780    0.044955
  C     -2.282044   -0.054967   -1.168015
  C     -1.425806   -2.059289    0.124157
  C     -2.747762   -2.463713    0.792393
  C     -3.141716   -1.256819    1.653275
  O     -4.060961   -1.215938    2.429271
  C     -2.164491   -0.115646    1.357096
  H      1.182029    1.865601   -0.072201
  H     -0.336838    2.012833   -0.954590
  H     -0.335758    2.034760    0.813354
  H      0.472480   -0.371412   -0.935323
  H      0.557925   -0.343257    0.816099
  H     -1.802852   -0.358629   -2.105240
  H     -3.284480   -0.495688   -1.150496
  H     -2.410376    1.031088   -1.191298
  H     -1.284083   -2.513561   -0.860803
  H     -0.582431   -2.377445    0.748398
  H     -3.550509   -2.631310    0.064602
  H     -2.691615   -3.367489    1.404768
  H     -1.452107   -0.081887    2.193951
  H     -2.683268    0.845848    1.340331

 Total Charge           Charge          ....    0
 Multiplicity           Mult            ....    1
 Number of Electrons    NEL             ....   70
 Basis Dimension        Dim             ....  363

ORBITAL ENERGIES
----------------

  NO   OCC          E(Eh)            E(eV)
   0   2.0000     -20.539674      -558.9130
   1   2.0000     -11.324640      -308.1591
   2   2.0000     -11.246953      -306.0452
   3   2.0000     -11.233539      -305.6801
   4   2.0000     -11.231600      -305.6274
   5   2.0000     -11.231368      -305.6211
   6   2.0000     -11.228567      -305.5448
   7   2.0000     -11.222586      -305.3821
   8   2.0000     -11.219957      -305.3105
   9   2.0000      -1.384336       -37.6697
  10   2.0000      -1.146742       -31.2044
  11   2.0000      -1.045500       -28.4495
  12   2.0000      -0.986435       -26.8423
  13   2.0000      -0.967468       -26.3261
  14   2.0000      -0.910546       -24.7772
  15   2.0000      -0.844050       -22.9678
  16   2.0000      -0.748217       -20.3600
  17   2.0000      -0.734167       -19.9777
  18   2.0000      -0.659059       -17.9339
  19   2.0000      -0.657594       -17.8940
  20   2.0000      -0.626132       -17.0379
  21   2.0000      -0.608204       -16.5501
  22   2.0000      -0.591028       -16.0827
  23   2.0000      -0.583085       -15.8665
  24   2.0000      -0.562247       -15.2995
  25   2.0000      -0.558011       -15.1843
  26   2.0000      -0.540309       -14.7026
  27   2.0000      -0.531413       -14.4605
  28   2.0000      -0.514940       -14.0122
  29   2.0000      -0.496095       -13.4994
  30   2.0000      -0.478145       -13.0110
  31   2.0000      -0.465910       -12.6781
  32   2.0000      -0.458269       -12.4701
  33   2.0000      -0.450377       -12.2554
  34   2.0000      -0.392263       -10.6740
  35   0.0000       0.119758         3.2588
  36   0.0000       0.134182         3.6513
  37   0.0000       0.153744         4.1836
  38   0.0000       0.161259         4.3881
  39   0.0000       0.167525         4.5586

MULLIKEN ATOMIC CHARGES
-----------------------
   0 C :   -0.419659
   1 C :   -0.197493
   2 C :    0.136397
   3 C :   -0.476156
   4 C :   -0.244764
   5 C :   -0.235973
   6 C :    0.119346
   7 O :   -0.265617
   8 C :   -0.268383
   9 H :    0.139069
  10 H :    0.131539
  11 H :    0.134270
  12 H :    0.113565
  13 H :    0.108725
  14 H :    0.135021
  15 H :    0.140479
  16 H :    0.141699
  17 H :    0.124766
  18 H :    0.119333
  19 H :    0.141412
  20 H :    0.143297
  21 H :    0.135122
  22 H :    0.144006
Sum of atomic charges:    0.0000000

LOEWDIN ATOMIC CHARGES
----------------------
   0 C :   -0.314889
   1 C :   -0.256250
   2 C :   -0.294206
   3 C :   -0.263871
   4 C :   -0.210742
   5 C :   -0.228482
   6 C :   -0.310896
   7 O :    0.149418
   8 C :   -0.187454
   9 H :    0.122992
  10 H :    0.120752
  11 H :    0.122251
  12 H :    0.140655
  13 H :    0.139071
  14 H :    0.127510
  15 H :    0.128649
  16 H :    0.126046
  17 H :    0.138107
  18 H :    0.141798
  19 H :    0.152470
  20 H :    0.147220
  21 H :    0.160214
  22 H :    0.149636

  Mayer bond orders larger than 0.1
B(  0-C ,  1-C ) :   0.9173 B(  0-C ,  9-H ) :   0.9408 B(  0-C , 10-H ) :   0.9398
B(  0-C , 11-H ) :   0.9381 B(  1-C ,  2-C ) :   0.8802 B(  1-C , 12-H ) :   0.9326
B(  1-C , 13-H ) :   0.9267 B(  2-C ,  3-C ) :   0.9221 B(  2-C ,  4-C ) :   0.8648
B(  2-C ,  8-C ) :   0.8886 B(  3-C , 14-H ) :   0.9370 B(  3-C , 15-H ) :   0.9262
B(  3-C , 16-H ) :   0.9382 B(  4-C ,  5-C ) :   0.9348 B(  4-C , 17-H ) :   0.9223
B(  4-C , 18-H ) :   0.9244 B(  5-C ,  6-C ) :   0.9010 B(  5-C ,  8-C ) :  -0.1244
B(  5-C , 19-H ) :   0.9109 B(  5-C , 20-H ) :   0.9139 B(  6-C ,  7-O ) :   2.0707
B(  6-C ,  8-C ) :   0.9058 B(  8-C , 21-H ) :   0.8969 B(  8-C , 22-H ) :   0.9093

MP2 TOTAL ENERGY:     -387.660704725 Eh
FINAL SINGLE POINT ENERGY      -387.660704724893

DIPOLE MOMENT
-------------
                                X             Y             Z
Electronic contribution:     -7.01203      -4.08848       6.53039
Nuclear contribution   :      7.92222       4.09551      -7.29667
                        -----------------------------------------
Total Dipole Moment    :      0.91019       0.00702      -0.76629
                        -----------------------------------------
Magnitude (a.u.)       :      1.18983
Magnitude (Debye)      :      3.02430

                             ****ORCA TERMINATED NORMALLY****
TOTAL RUN TIME: 0 days 0 hours 22 minutes 30 seconds 218 msec
