                         Program Version 3.0.3 - RELEASE   -
|  1> ! RI-MP2 RIJK def2-TZVP def2-TZVP/C def2-TZVP/JK TIGHTSCF
|  2> % maxcore 2000
|  3> % mp2 density relaxed end
|  4> *xyz 0 1
|  5>  O        0.1093807114     1.0363193744     0.9287558538
|  6>  C       -0.0358583175     0.1844955073    -0.1985882361
|  7>  C       -1.3736834833    -0.3954802133    -0.2001964089
|  8>  C       -2.4717786138    -0.8832497993    -0.2163842608
|  9>  C       -3.8114458253    -1.4694231881    -0.2260400542
| 10>  C       -3.8123707476    -2.9127759648     0.0030531944
| 11>  C       -3.8184545552    -4.1051397485     0.1885977854
| 12>  C       -3.8254674809    -5.4544907663     0.3979724815
| 13>  N       -3.8331057253    -6.6024274969     0.5749799790
| 14>  H        1.0062652119     1.3857426459     0.9120181075
| 15>  H        0.1159337649     0.7347551459    -1.1414335405
| 16>  H        0.7025836966    -0.6333971700    -0.1846346485
| 17>  H       -4.4320722298    -0.9880348460     0.5428013711
| 18>  H       -4.3104439760    -1.2625486502    -1.1832087138
| 19> *
| 20>
| 21>                          ****END OF INPUT****

CARTESIAN COORDINATES (ANGSTROEM)
---------------------------------
  O      0.109381    1.036319    0.928756
  C     -0.035858    0.184496   -0.198588
  C     -1.373683   -0.395480   -0.200196
  C     -2.471779   -0.883250   -0.216384
  C     -3.811446   -1.469423   -0.226040
  C     -3.812371   -2.912776    0.003053
  C     -3.818455   -4.105140    0.188598
  C     -3.825467   -5.454491    0.397972
  N     -3.833106   -6.602427    0.574980
  H      1.006265    1.385743    0.912018
  H      0.115934    0.734755   -1.141434
  H      0.702584   -0.633397   -0.184635
  H     -4.432072   -0.988035    0.542801
  H     -4.310444   -1.262549   -1.183209

 Total Charge           Charge          ....    0
 Multiplicity           Mult            ....    1
 Number of Electrons    NEL             ....   62
 Basis Dimension        Dim             ....  309

ORBITAL ENERGIES
----------------

  NO   OCC          E(Eh)            E(eV)
   0   2.0000     -20.579208      -559.9887
   1   2.0000     -15.594190      -424.3395
   2   2.0000     -11.321697      -308.0790
   3   2.0000     -11.313632      -307.8596
   4   2.0000     -11.301644      -307.5334
   5   2.0000     -11.299750      -307.4818
   6   2.0000     -11.280726      -306.9642
   7   2.0000     -11.252511      -306.1964
   8   2.0000     -11.247066      -306.0482
   9   2.0000      -1.383826       -37.6558
  10   2.0000      -1.234447       -33.5910
  11   2.0000      -1.134960       -30.8838
  12   2.0000      -1.073426       -29.2094
  13   2.0000      -1.028844       -27.9963
  14   2.0000      -0.945863       -25.7382
  15   2.0000      -0.879920       -23.9438
  16   2.0000      -0.730644       -19.8818
  17   2.0000      -0.713992       -19.4287
  18   2.0000      -0.681428       -18.5426
  19   2.0000      -0.660320       -17.9682
  20   2.0000      -0.651358       -17.7244
  21   2.0000      -0.648496       -17.6465
  22   2.0000      -0.578857       -15.7515
  23   2.0000      -0.549083       -14.9413
  24   2.0000      -0.534377       -14.5411
  25   2.0000      -0.533532       -14.5181
  26   2.0000      -0.485630       -13.2147
  27   2.0000      -0.417519       -11.3613
  28   2.0000      -0.414812       -11.2876
  29   2.0000      -0.398520       -10.8443
  30   2.0000      -0.393203       -10.6996
  31   0.0000       0.093151         2.5348
  32   0.0000       0.096371         2.6224
  33   0.0000       0.113189         3.0800
  34   0.0000       0.123291         3.3549
  35   0.0000       0.158729         4.3192

MULLIKEN ATOMIC CHARGES
-----------------------
   0 O :   -0.444118
   1 C :   -0.193981
   2 C :    0.053007
   3 C :    0.061489
   4 C :   -0.418130
   5 C :   -0.044560
   6 C :    0.278448
   7 C :   -0.219593
   8 N :   -0.040056
   9 H :    0.319601
  10 H :    0.129958
  11 H :    0.133757
  12 H :    0.193608
  13 H :    0.190571
Sum of atomic charges:   -0.0000000

LOEWDIN ATOMIC CHARGES
----------------------
   0 O :   -0.038024
   1 C :   -0.334803
   2 C :   -0.057332
   3 C :   -0.054705
   4 C :   -0.221435
   5 C :    0.021769
   6 C :   -0.053100
   7 C :   -0.174664
   8 N :    0.099800
   9 H :    0.176452
  10 H :    0.135308
  11 H :    0.136618
  12 H :    0.183266
  13 H :    0.180849

  Mayer bond orders larger than 0.1
B(  0-O ,  1-C ) :   1.1225 B(  0-O ,  9-H ) :   0.8453 B(  1-C ,  2-C ) :   0.9333
B(  1-C , 10-H ) :   0.9484 B(  1-C , 11-H ) :   0.9497 B(  2-C ,  3-C ) :   2.6889
B(  3-C ,  4-C ) :   1.0030 B(  4-C ,  5-C ) :   1.0152 B(  4-C ,  6-C ) :  -0.1075
B(  4-C , 12-H ) :   0.9218 B(  4-C , 13-H ) :   0.9281 B(  5-C ,  6-C ) :   2.5317
B(  5-C ,  8-N ) :   0.1117 B(  6-C ,  7-C ) :   1.0053 B(  7-C ,  8-N ) :   2.7593

MP2 TOTAL ENERGY:     -398.780327109 Eh
FINAL SINGLE POINT ENERGY      -398.780327109253

DIPOLE MOMENT
-------------
                                X             Y             Z
Electronic contribution:     -4.34124      -7.66899       1.01510
Nuclear contribution   :      4.91662       9.43734      -1.71700
                        -----------------------------------------
Total Dipole Moment    :      0.57538       1.76834      -0.70190
                        -----------------------------------------
Magnitude (a.u.)       :      1.98765
Magnitude (Debye)      :      5.05221

                             ****ORCA TERMINATED NORMALLY****
TOTAL RUN TIME: 0 days 0 hours 10 minutes 20 seconds 45 msec
