                         Program Version 3.0.3 - RELEASE   -
|  1> ! RI-MP2 RIJK def2-TZVP def2-TZVP/C def2-TZVP/JK TIGHTSCF
|  2> % maxcore 2000
|  3> % mp2 density relaxed end
|  4> *xyz 0 1
|  5>  C       -0.0188607245     1.5207140879    -0.2611283415
|  6>  C       -0.0405463454     0.0228996101     0.0488955303
|  7>  C       -1.4509241576    -0.5823626677    -0.0139850765
|  8>  O       -2.0663076812    -0.3518201851    -1.2746822538
|  9>  C       -1.4348168993    -2.0813828386     0.2816824606
| 10>  C       -2.7641133746    -2.8575114176     0.2117079941
| 11>  C       -2.0592175272    -3.7078875949    -0.8668509726
| 12>  C       -2.6958474511    -3.8286316510    -2.2350335910
| 13>  O       -0.9083337777    -2.8150009516    -0.8589327754
| 14>  H        1.0030486602     1.9116648909    -0.2557529363
| 15>  H       -0.4590747474     1.7146571780    -1.2423712521
| 16>  H       -0.5969905754     2.0854703341     0.4792396495
| 17>  H        0.5984937796    -0.5206163588    -0.6595091597
| 18>  H        0.3765181005    -0.1636915112     1.0471754399
| 19>  H       -2.0931718432    -0.0899513132     0.7294380843
| 20>  H       -1.6211187938    -0.9604886670    -1.8803975812
| 21>  H       -0.8446360722    -2.2872878287     1.1849592173
| 22>  H       -3.0762571629    -3.3750122622     1.1195445427
| 23>  H       -3.5869993277    -2.2567170412    -0.1801953152
| 24>  H       -1.7551578336    -4.6977174943    -0.4994938973
| 25>  H       -3.0427858551    -2.8523598034    -2.5873429596
| 26>  H       -1.9794556793    -4.2294695009    -2.9593514809
| 27>  H       -3.5552299410    -4.5069681935    -2.1952150255
| 28> *
| 29>
| 30>                          ****END OF INPUT****

CARTESIAN COORDINATES (ANGSTROEM)
---------------------------------
  C     -0.018861    1.520714   -0.261128
  C     -0.040546    0.022900    0.048896
  C     -1.450924   -0.582363   -0.013985
  O     -2.066308   -0.351820   -1.274682
  C     -1.434817   -2.081383    0.281682
  C     -2.764113   -2.857511    0.211708
  C     -2.059218   -3.707888   -0.866851
  C     -2.695847   -3.828632   -2.235034
  O     -0.908334   -2.815001   -0.858933
  H      1.003049    1.911665   -0.255753
  H     -0.459075    1.714657   -1.242371
  H     -0.596991    2.085470    0.479240
  H      0.598494   -0.520616   -0.659509
  H      0.376518   -0.163692    1.047175
  H     -2.093172   -0.089951    0.729438
  H     -1.621119   -0.960489   -1.880398
  H     -0.844636   -2.287288    1.184959
  H     -3.076257   -3.375012    1.119545
  H     -3.586999   -2.256717   -0.180195
  H     -1.755158   -4.697717   -0.499494
  H     -3.042786   -2.852360   -2.587343
  H     -1.979456   -4.229470   -2.959351
  H     -3.555230   -4.506968   -2.195215

 Total Charge           Charge          ....    0
 Multiplicity           Mult            ....    1
 Number of Electrons    NEL             ....   72
 Basis Dimension        Dim             ....  363

ORBITAL ENERGIES
----------------

  NO   OCC          E(Eh)            E(eV)
   0   2.0000     -20.550466      -559.2066
   1   2.0000     -20.546643      -559.1026
   2   2.0000     -11.286382      -307.1181
   3   2.0000     -11.282672      -307.0171
   4   2.0000     -11.275438      -306.8203
   5   2.0000     -11.227070      -305.5041
   6   2.0000     -11.219982      -305.3112
   7   2.0000     -11.217662      -305.2481
   8   2.0000     -11.206436      -304.9426
   9   2.0000      -1.386248       -37.7217
  10   2.0000      -1.348811       -36.7030
  11   2.0000      -1.054695       -28.6997
  12   2.0000      -1.034226       -28.1427
  13   2.0000      -1.000391       -27.2220
  14   2.0000      -0.930466       -25.3193
  15   2.0000      -0.844577       -22.9821
  16   2.0000      -0.801937       -21.8218
  17   2.0000      -0.757686       -20.6177
  18   2.0000      -0.693604       -18.8739
  19   2.0000      -0.673014       -18.3136
  20   2.0000      -0.651013       -17.7150
  21   2.0000      -0.622866       -16.9491
  22   2.0000      -0.608991       -16.5715
  23   2.0000      -0.591900       -16.1064
  24   2.0000      -0.561369       -15.2756
  25   2.0000      -0.559439       -15.2231
  26   2.0000      -0.535294       -14.5661
  27   2.0000      -0.531182       -14.4542
  28   2.0000      -0.521910       -14.2019
  29   2.0000      -0.515992       -14.0408
  30   2.0000      -0.482193       -13.1211
  31   2.0000      -0.475251       -12.9322
  32   2.0000      -0.469745       -12.7824
  33   2.0000      -0.453329       -12.3357
  34   2.0000      -0.425918       -11.5898
  35   2.0000      -0.411358       -11.1936
  36   0.0000       0.141119         3.8401
  37   0.0000       0.148198         4.0327
  38   0.0000       0.158828         4.3219
  39   0.0000       0.173111         4.7106
  40   0.0000       0.183371         4.9898

MULLIKEN ATOMIC CHARGES
-----------------------
   0 C :   -0.379977
   1 C :   -0.212128
   2 C :    0.062064
   3 O :   -0.482504
   4 C :    0.049884
   5 C :   -0.214799
   6 C :    0.086438
   7 C :   -0.408083
   8 O :   -0.364991
   9 H :    0.130922
  10 H :    0.140923
  11 H :    0.114541
  12 H :    0.123737
  13 H :    0.101311
  14 H :    0.094148
  15 H :    0.321993
  16 H :    0.089014
  17 H :    0.131604
  18 H :    0.126061
  19 H :    0.088043
  20 H :    0.130364
  21 H :    0.139948
  22 H :    0.131487
Sum of atomic charges:   -0.0000000

LOEWDIN ATOMIC CHARGES
----------------------
   0 C :   -0.319786
   1 C :   -0.280877
   2 C :   -0.340619
   3 O :   -0.014035
   4 C :   -0.268105
   5 C :   -0.205690
   6 C :   -0.303225
   7 C :   -0.301130
   8 O :    0.138499
   9 H :    0.119604
  10 H :    0.124918
  11 H :    0.119907
  12 H :    0.141208
  13 H :    0.137657
  14 H :    0.148553
  15 H :    0.176141
  16 H :    0.138707
  17 H :    0.128889
  18 H :    0.142375
  19 H :    0.134236
  20 H :    0.124544
  21 H :    0.128539
  22 H :    0.129689

  Mayer bond orders larger than 0.1
B(  0-C ,  1-C ) :   0.9239 B(  0-C ,  9-H ) :   0.9421 B(  0-C , 10-H ) :   0.9366
B(  0-C , 11-H ) :   0.9365 B(  1-C ,  2-C ) :   0.9422 B(  1-C , 12-H ) :   0.9224
B(  1-C , 13-H ) :   0.9267 B(  2-C ,  3-O ) :   0.9136 B(  2-C ,  4-C ) :   0.9279
B(  2-C , 14-H ) :   0.9189 B(  3-O , 15-H ) :   0.8224 B(  4-C ,  5-C ) :   0.9197
B(  4-C ,  8-O ) :   0.9335 B(  4-C , 16-H ) :   0.9140 B(  5-C ,  6-C ) :   0.9404
B(  5-C , 17-H ) :   0.9253 B(  5-C , 18-H ) :   0.9165 B(  6-C ,  7-C ) :   0.9323
B(  6-C ,  8-O ) :   0.8885 B(  6-C , 19-H ) :   0.9211 B(  7-C , 20-H ) :   0.9304
B(  7-C , 21-H ) :   0.9367 B(  7-C , 22-H ) :   0.9300

MP2 TOTAL ENERGY:     -424.719873577 Eh
FINAL SINGLE POINT ENERGY      -424.719873577081

DIPOLE MOMENT
-------------
                                X             Y             Z
Electronic contribution:     -0.38488      -2.68379       0.18009
Nuclear contribution   :      0.22308       2.14430       0.25714
                        -----------------------------------------
Total Dipole Moment    :     -0.16180      -0.53950       0.43723
                        -----------------------------------------
Magnitude (a.u.)       :      0.71303
Magnitude (Debye)      :      1.81237

                             ****ORCA TERMINATED NORMALLY****
TOTAL RUN TIME: 0 days 0 hours 18 minutes 14 seconds 768 msec
