                         Program Version 3.0.3 - RELEASE   -
|  1> ! RI-MP2 RIJK def2-TZVP def2-TZVP/C def2-TZVP/JK TIGHTSCF
|  2> % maxcore 2000
|  3> % mp2 density relaxed end
|  4> *xyz 0 1
|  5>  C       -0.0337325729     1.5441163007     0.0109681741
|  6>  C        0.0066889078     0.0356446065     0.0223991914
|  7>  C       -1.2261739799    -0.7013128617     0.6291609885
|  8>  C       -1.1425763459    -2.1937533323     0.5150467445
|  9>  C       -0.3167080470    -1.5053158791     1.5636198337
| 10>  C        0.9283180190    -0.8030284340     0.9549057624
| 11>  N        1.5481343583    -1.3629390715    -0.2474223251
| 12>  C        0.7171935467    -0.7077701454    -1.1456606612
| 13>  O        0.6272323586    -0.7507616941    -2.3428894462
| 14>  H        0.9561058967     1.9674341170    -0.1865189751
| 15>  H       -0.7115559486     1.8983122377    -0.7731996508
| 16>  H       -0.3913713960     1.9368731219     0.9688904264
| 17>  H       -2.1559896632    -0.1927430415     0.8530525515
| 18>  H       -2.0066358942    -2.7254849691     0.9006374461
| 19>  H       -0.6814887217    -2.6708212417    -0.3448192993
| 20>  H       -0.4362124398    -1.7116016146     2.6199583132
| 21>  H        1.6138287141    -0.3336041731     1.6610996084
| 22>  H        2.1076769381    -2.1934639856    -0.3853644626
| 23> *
| 24>
| 25>                          ****END OF INPUT****

CARTESIAN COORDINATES (ANGSTROEM)
---------------------------------
  C     -0.033733    1.544116    0.010968
  C      0.006689    0.035645    0.022399
  C     -1.226174   -0.701313    0.629161
  C     -1.142576   -2.193753    0.515047
  C     -0.316708   -1.505316    1.563620
  C      0.928318   -0.803028    0.954906
  N      1.548134   -1.362939   -0.247422
  C      0.717194   -0.707770   -1.145661
  O      0.627232   -0.750762   -2.342889
  H      0.956106    1.967434   -0.186519
  H     -0.711556    1.898312   -0.773200
  H     -0.391371    1.936873    0.968890
  H     -2.155990   -0.192743    0.853053
  H     -2.006636   -2.725485    0.900637
  H     -0.681489   -2.670821   -0.344819
  H     -0.436212   -1.711602    2.619958
  H      1.613829   -0.333604    1.661100
  H      2.107677   -2.193464   -0.385364

 Total Charge           Charge          ....    0
 Multiplicity           Mult            ....    1
 Number of Electrons    NEL             ....   66
 Basis Dimension        Dim             ....  333

ORBITAL ENERGIES
----------------

  NO   OCC          E(Eh)            E(eV)
   0   2.0000     -20.524911      -558.5112
   1   2.0000     -15.580887      -423.9775
   2   2.0000     -11.345621      -308.7301
   3   2.0000     -11.281477      -306.9846
   4   2.0000     -11.257395      -306.3293
   5   2.0000     -11.250216      -306.1339
   6   2.0000     -11.246484      -306.0324
   7   2.0000     -11.241057      -305.8847
   8   2.0000     -11.230122      -305.5872
   9   2.0000      -1.385641       -37.7052
  10   2.0000      -1.279387       -34.8139
  11   2.0000      -1.168166       -31.7874
  12   2.0000      -1.038080       -28.2476
  13   2.0000      -0.940078       -25.5808
  14   2.0000      -0.896032       -24.3823
  15   2.0000      -0.833932       -22.6924
  16   2.0000      -0.787049       -21.4167
  17   2.0000      -0.721268       -19.6267
  18   2.0000      -0.696943       -18.9648
  19   2.0000      -0.668880       -18.2012
  20   2.0000      -0.652270       -17.7492
  21   2.0000      -0.636554       -17.3215
  22   2.0000      -0.580847       -15.8056
  23   2.0000      -0.572534       -15.5795
  24   2.0000      -0.553452       -15.0602
  25   2.0000      -0.547863       -14.9081
  26   2.0000      -0.533850       -14.5268
  27   2.0000      -0.499365       -13.5884
  28   2.0000      -0.464048       -12.6274
  29   2.0000      -0.436799       -11.8859
  30   2.0000      -0.428138       -11.6502
  31   2.0000      -0.392453       -10.6792
  32   2.0000      -0.369910       -10.0658
  33   0.0000       0.137627         3.7450
  34   0.0000       0.138939         3.7807
  35   0.0000       0.155730         4.2376
  36   0.0000       0.164456         4.4751
  37   0.0000       0.183090         4.9821

MULLIKEN ATOMIC CHARGES
-----------------------
   0 C :   -0.443180
   1 C :    0.186756
   2 C :   -0.200247
   3 C :   -0.248430
   4 C :   -0.159332
   5 C :    0.004738
   6 N :   -0.331403
   7 C :    0.136489
   8 O :   -0.300762
   9 H :    0.142998
  10 H :    0.151106
  11 H :    0.136946
  12 H :    0.139453
  13 H :    0.135521
  14 H :    0.148168
  15 H :    0.137565
  16 H :    0.129968
  17 H :    0.233646
Sum of atomic charges:   -0.0000000

LOEWDIN ATOMIC CHARGES
----------------------
   0 C :   -0.262022
   1 C :   -0.181603
   2 C :   -0.136733
   3 C :   -0.198748
   4 C :   -0.163817
   5 C :   -0.172952
   6 N :    0.141968
   7 C :   -0.401379
   8 O :    0.108519
   9 H :    0.133201
  10 H :    0.137473
  11 H :    0.130394
  12 H :    0.140546
  13 H :    0.143684
  14 H :    0.137942
  15 H :    0.135440
  16 H :    0.138698
  17 H :    0.169387

  Mayer bond orders larger than 0.1
B(  0-C ,  1-C ) :   0.8703 B(  0-C ,  9-H ) :   0.9385 B(  0-C , 10-H ) :   0.9381
B(  0-C , 11-H ) :   0.9367 B(  1-C ,  2-C ) :   0.8613 B(  1-C ,  5-C ) :   0.8981
B(  1-C ,  7-C ) :   0.8200 B(  2-C ,  3-C ) :   0.8871 B(  2-C ,  4-C ) :   0.8791
B(  2-C , 12-H ) :   0.9237 B(  3-C ,  4-C ) :   0.8967 B(  3-C , 13-H ) :   0.9347
B(  3-C , 14-H ) :   0.9157 B(  4-C ,  5-C ) :   0.8993 B(  4-C , 15-H ) :   0.9249
B(  5-C ,  6-N ) :   0.9468 B(  5-C , 16-H ) :   0.9113 B(  6-N ,  7-C ) :   1.1604
B(  6-N , 17-H ) :   0.8540 B(  7-C ,  8-O ) :   2.0539

MP2 TOTAL ENERGY:     -401.237720074 Eh
FINAL SINGLE POINT ENERGY      -401.237720073520

DIPOLE MOMENT
-------------
                                X             Y             Z
Electronic contribution:      2.76531      -2.35125      -3.80573
Nuclear contribution   :     -2.76343       2.19691       5.29008
                        -----------------------------------------
Total Dipole Moment    :      0.00188      -0.15435       1.48435
                        -----------------------------------------
Magnitude (a.u.)       :      1.49236
Magnitude (Debye)      :      3.79328

                             ****ORCA TERMINATED NORMALLY****
TOTAL RUN TIME: 0 days 0 hours 19 minutes 42 seconds 288 msec
