                         Program Version 3.0.3 - RELEASE   -
|  1> ! RI-MP2 RIJK def2-TZVP def2-TZVP/C def2-TZVP/JK TIGHTSCF
|  2> % maxcore 2000
|  3> % mp2 density relaxed end
|  4> *xyz 0 1
|  5>  C        0.0135140068     1.5535162978     0.0856686131
|  6>  C        0.0430460602     0.0477222465     0.0758879276
|  7>  C       -1.2747864044    -0.7836645459     0.2298505195
|  8>  C       -0.3667429440    -1.8580659386     0.8015870657
|  9>  O       -0.6859723094    -3.0758273175     1.3774949645
| 10>  C        0.7227638255    -0.8677524673     1.1844741482
| 11>  C        0.9528369447    -1.8301903318     0.0271759872
| 12>  O        1.7416171799    -2.9537751529    -0.0368634755
| 13>  C        0.8464246943    -0.7367928102    -1.0157163036
| 14>  H        1.0262083088     1.9704984607     0.0770375400
| 15>  H       -0.5126710797     1.9378055033    -0.7963217797
| 16>  H       -0.5005210886     1.9373493518     0.9735176912
| 17>  H       -1.9305144432    -0.3497705391     0.9934391939
| 18>  H       -1.8502099681    -0.9977947638    -0.6785512430
| 19>  H       -1.0044080294    -2.9294070538     2.2743673762
| 20>  H        1.2511978865    -0.6597613984     2.1039246857
| 21>  H        1.2453574142    -3.6680538656     0.3858356444
| 22>  H        0.3384434737    -0.9535980224    -1.9633187236
| 23>  H        1.8160591422    -0.2683235429    -1.2104631118
| 24> *
| 25>
| 26>                          ****END OF INPUT****

CARTESIAN COORDINATES (ANGSTROEM)
---------------------------------
  C      0.013514    1.553516    0.085669
  C      0.043046    0.047722    0.075888
  C     -1.274786   -0.783665    0.229851
  C     -0.366743   -1.858066    0.801587
  O     -0.685972   -3.075827    1.377495
  C      0.722764   -0.867752    1.184474
  C      0.952837   -1.830190    0.027176
  O      1.741617   -2.953775   -0.036863
  C      0.846425   -0.736793   -1.015716
  H      1.026208    1.970498    0.077038
  H     -0.512671    1.937806   -0.796322
  H     -0.500521    1.937349    0.973518
  H     -1.930514   -0.349771    0.993439
  H     -1.850210   -0.997795   -0.678551
  H     -1.004408   -2.929407    2.274367
  H      1.251198   -0.659761    2.103925
  H      1.245357   -3.668054    0.385836
  H      0.338443   -0.953598   -1.963319
  H      1.816059   -0.268324   -1.210463

 Total Charge           Charge          ....    0
 Multiplicity           Mult            ....    1
 Number of Electrons    NEL             ....   68
 Basis Dimension        Dim             ....  339

ORBITAL ENERGIES
----------------

  NO   OCC          E(Eh)            E(eV)
   0   2.0000     -20.582603      -560.0811
   1   2.0000     -20.559654      -559.4566
   2   2.0000     -11.289876      -307.2131
   3   2.0000     -11.285942      -307.1061
   4   2.0000     -11.250888      -306.1522
   5   2.0000     -11.228044      -305.5306
   6   2.0000     -11.225162      -305.4522
   7   2.0000     -11.222384      -305.3766
   8   2.0000     -11.220880      -305.3357
   9   2.0000      -1.399915       -38.0936
  10   2.0000      -1.366598       -37.1870
  11   2.0000      -1.220573       -33.2135
  12   2.0000      -1.009825       -27.4787
  13   2.0000      -0.974050       -26.5052
  14   2.0000      -0.925085       -25.1728
  15   2.0000      -0.837525       -22.7902
  16   2.0000      -0.773139       -21.0382
  17   2.0000      -0.729659       -19.8550
  18   2.0000      -0.704676       -19.1752
  19   2.0000      -0.676268       -18.4022
  20   2.0000      -0.640123       -17.4186
  21   2.0000      -0.616185       -16.7672
  22   2.0000      -0.604016       -16.4361
  23   2.0000      -0.584000       -15.8914
  24   2.0000      -0.574479       -15.6324
  25   2.0000      -0.557697       -15.1757
  26   2.0000      -0.550284       -14.9740
  27   2.0000      -0.522120       -14.2076
  28   2.0000      -0.516650       -14.0588
  29   2.0000      -0.467414       -12.7190
  30   2.0000      -0.438215       -11.9244
  31   2.0000      -0.436544       -11.8790
  32   2.0000      -0.373749       -10.1702
  33   2.0000      -0.352382        -9.5888
  34   0.0000       0.126450         3.4409
  35   0.0000       0.141742         3.8570
  36   0.0000       0.175944         4.7877
  37   0.0000       0.182203         4.9580
  38   0.0000       0.190594         5.1863

MULLIKEN ATOMIC CHARGES
-----------------------
   0 C :   -0.397193
   1 C :    0.021033
   2 C :   -0.149859
   3 C :    0.063441
   4 O :   -0.486456
   5 C :   -0.248204
   6 C :    0.149048
   7 O :   -0.461441
   8 C :   -0.150479
   9 H :    0.135316
  10 H :    0.136646
  11 H :    0.130804
  12 H :    0.096561
  13 H :    0.109873
  14 H :    0.338755
  15 H :    0.160755
  16 H :    0.336369
  17 H :    0.103138
  18 H :    0.111894
Sum of atomic charges:   -0.0000000

LOEWDIN ATOMIC CHARGES
----------------------
   0 C :   -0.276732
   1 C :   -0.199902
   2 C :   -0.161085
   3 C :   -0.319429
   4 O :    0.027391
   5 C :   -0.092283
   6 C :   -0.306026
   7 O :    0.039527
   8 C :   -0.150539
   9 H :    0.129252
  10 H :    0.130842
  11 H :    0.127570
  12 H :    0.137631
  13 H :    0.128192
  14 H :    0.188186
  15 H :    0.135222
  16 H :    0.191593
  17 H :    0.127752
  18 H :    0.142838

  Mayer bond orders larger than 0.1
B(  0-C ,  1-C ) :   0.8466 B(  0-C ,  9-H ) :   0.9415 B(  0-C , 10-H ) :   0.9414
B(  0-C , 11-H ) :   0.9418 B(  1-C ,  2-C ) :   0.9052 B(  1-C ,  5-C ) :   0.8741
B(  1-C ,  8-C ) :   0.9240 B(  2-C ,  3-C ) :   0.9605 B(  2-C , 12-H ) :   0.9045
B(  2-C , 13-H ) :   0.9039 B(  3-C ,  4-O ) :   1.0421 B(  3-C ,  5-C ) :   0.8140
B(  3-C ,  6-C ) :   0.8576 B(  4-O , 14-H ) :   0.8315 B(  5-C ,  6-C ) :   0.8246
B(  5-C , 15-H ) :   0.8762 B(  6-C ,  7-O ) :   1.0984 B(  6-C ,  8-C ) :   0.9832
B(  7-O , 16-H ) :   0.8185 B(  8-C , 17-H ) :   0.9007 B(  8-C , 18-H ) :   0.9191

MP2 TOTAL ENERGY:     -422.273903704 Eh
FINAL SINGLE POINT ENERGY      -422.273903704396

DIPOLE MOMENT
-------------
                                X             Y             Z
Electronic contribution:      1.56165      -7.18199       1.59897
Nuclear contribution   :     -2.18846       7.68186      -0.96124
                        -----------------------------------------
Total Dipole Moment    :     -0.62681       0.49987       0.63773
                        -----------------------------------------
Magnitude (a.u.)       :      1.02443
Magnitude (Debye)      :      2.60390

                             ****ORCA TERMINATED NORMALLY****
TOTAL RUN TIME: 0 days 0 hours 16 minutes 59 seconds 524 msec
