                         Program Version 3.0.3 - RELEASE   -
|  1> ! RI-MP2 RIJK def2-TZVP def2-TZVP/C def2-TZVP/JK TIGHTSCF
|  2> % maxcore 2000
|  3> % mp2 density relaxed end
|  4> *xyz 0 1
|  5>  C       -0.2660484026     1.4309721892     0.0372167446
|  6>  N       -0.0016218718     0.0057266279     0.1639896462
|  7>  C        1.3174546406    -0.4963284278    -0.2028904011
|  8>  C        0.8655230531    -0.5084242312     1.2211715710
|  9>  C        1.5347933489     0.3997654199     2.2347062914
| 10>  C        0.3679423984    -1.8387659082     1.7952622070
| 11>  C       -0.6106995546    -1.6519612407     2.8673816287
| 12>  N       -1.3737771788    -1.4805869765     3.7182188326
| 13>  H        0.6132538801     2.0760316097     0.1845949524
| 14>  H       -0.6554932684     1.6211733405    -0.9676223111
| 15>  H       -1.0349177519     1.7217472128     0.7591847129
| 16>  H        1.3391264452    -1.4070096127    -0.7978869586
| 17>  H        2.0877782938     0.2301414654    -0.4619647048
| 18>  H        1.9179779941     1.3130621314     1.7768212830
| 19>  H        0.8379934821     0.6787904962     3.0319090572
| 20>  H        2.3819420979    -0.1153073153     2.7003636980
| 21>  H       -0.0975239786    -2.4230107783     0.9966551233
| 22>  H        1.2089655324    -2.4217942823     2.1899084172
| 23> *
| 24>
| 25>                          ****END OF INPUT****

CARTESIAN COORDINATES (ANGSTROEM)
---------------------------------
  C     -0.266048    1.430972    0.037217
  N     -0.001622    0.005727    0.163990
  C      1.317455   -0.496328   -0.202890
  C      0.865523   -0.508424    1.221172
  C      1.534793    0.399765    2.234706
  C      0.367942   -1.838766    1.795262
  C     -0.610700   -1.651961    2.867382
  N     -1.373777   -1.480587    3.718219
  H      0.613254    2.076032    0.184595
  H     -0.655493    1.621173   -0.967622
  H     -1.034918    1.721747    0.759185
  H      1.339126   -1.407010   -0.797887
  H      2.087778    0.230141   -0.461965
  H      1.917978    1.313062    1.776821
  H      0.837993    0.678790    3.031909
  H      2.381942   -0.115307    2.700364
  H     -0.097524   -2.423011    0.996655
  H      1.208966   -2.421794    2.189908

 Total Charge           Charge          ....    0
 Multiplicity           Mult            ....    1
 Number of Electrons    NEL             ....   60
 Basis Dimension        Dim             ....  308

ORBITAL ENERGIES
----------------

  NO   OCC          E(Eh)            E(eV)
   0   2.0000     -15.570801      -423.7030
   1   2.0000     -15.564467      -423.5307
   2   2.0000     -11.291349      -307.2532
   3   2.0000     -11.279880      -306.9412
   4   2.0000     -11.269567      -306.6605
   5   2.0000     -11.267227      -306.5968
   6   2.0000     -11.254976      -306.2635
   7   2.0000     -11.236140      -305.7509
   8   2.0000      -1.293052       -35.1857
   9   2.0000      -1.213967       -33.0337
  10   2.0000      -1.072235       -29.1770
  11   2.0000      -0.991768       -26.9874
  12   2.0000      -0.980561       -26.6824
  13   2.0000      -0.845545       -23.0085
  14   2.0000      -0.777069       -21.1451
  15   2.0000      -0.701673       -19.0935
  16   2.0000      -0.670534       -18.2462
  17   2.0000      -0.666196       -18.1281
  18   2.0000      -0.623739       -16.9728
  19   2.0000      -0.596762       -16.2387
  20   2.0000      -0.589414       -16.0388
  21   2.0000      -0.556752       -15.1500
  22   2.0000      -0.555599       -15.1186
  23   2.0000      -0.550542       -14.9810
  24   2.0000      -0.530834       -14.4447
  25   2.0000      -0.468851       -12.7581
  26   2.0000      -0.465630       -12.6704
  27   2.0000      -0.453803       -12.3486
  28   2.0000      -0.446419       -12.1477
  29   2.0000      -0.381383       -10.3780
  30   0.0000       0.124885         3.3983
  31   0.0000       0.148080         4.0294
  32   0.0000       0.161076         4.3831
  33   0.0000       0.171454         4.6655
  34   0.0000       0.180086         4.9004

MULLIKEN ATOMIC CHARGES
-----------------------
   0 C :   -0.301827
   1 N :   -0.243946
   2 C :   -0.197844
   3 C :    0.112709
   4 C :   -0.391971
   5 C :   -0.105873
   6 C :   -0.211128
   7 N :   -0.060447
   8 H :    0.104642
   9 H :    0.146206
  10 H :    0.148433
  11 H :    0.126432
  12 H :    0.122437
  13 H :    0.131280
  14 H :    0.164683
  15 H :    0.143309
  16 H :    0.158730
  17 H :    0.154176
Sum of atomic charges:    0.0000000

LOEWDIN ATOMIC CHARGES
----------------------
   0 C :   -0.324438
   1 N :    0.111924
   2 C :   -0.224489
   3 C :   -0.305042
   4 C :   -0.263671
   5 C :   -0.203183
   6 C :   -0.186459
   7 N :    0.054695
   8 H :    0.103928
   9 H :    0.121310
  10 H :    0.123093
  11 H :    0.126112
  12 H :    0.127440
  13 H :    0.128099
  14 H :    0.137535
  15 H :    0.134745
  16 H :    0.172247
  17 H :    0.166155

  Mayer bond orders larger than 0.1
B(  0-C ,  1-N ) :   0.8856 B(  0-C ,  8-H ) :   0.9284 B(  0-C ,  9-H ) :   0.9362
B(  0-C , 10-H ) :   0.9366 B(  1-N ,  2-C ) :   0.9076 B(  1-N ,  3-C ) :   0.8545
B(  2-C ,  3-C ) :   0.9293 B(  2-C , 11-H ) :   0.9080 B(  2-C , 12-H ) :   0.9188
B(  3-C ,  4-C ) :   0.9324 B(  3-C ,  5-C ) :   0.8672 B(  4-C , 13-H ) :   0.9286
B(  4-C , 14-H ) :   0.9305 B(  4-C , 15-H ) :   0.9293 B(  5-C ,  6-C ) :   0.9414
B(  5-C , 16-H ) :   0.9037 B(  5-C , 17-H ) :   0.9123 B(  6-C ,  7-N ) :   2.8682

MP2 TOTAL ENERGY:     -343.367088897 Eh
FINAL SINGLE POINT ENERGY      -343.367088896800

DIPOLE MOMENT
-------------
                                X             Y             Z
Electronic contribution:     -4.27623      -5.28432       3.71952
Nuclear contribution   :      5.67713       5.56791      -4.73865
                        -----------------------------------------
Total Dipole Moment    :      1.40090       0.28359      -1.01913
                        -----------------------------------------
Magnitude (a.u.)       :      1.75544
Magnitude (Debye)      :      4.46197

                             ****ORCA TERMINATED NORMALLY****
TOTAL RUN TIME: 0 days 0 hours 12 minutes 36 seconds 686 msec
